14.400
13.7426 0.000 0.000 0.000 13.7426 0.000 0.000 0.000 13.7426
2.05 0.000 0.000 0.000 2.05 0.000 0.000 0.000 2.05
-2.05 0.000 0.000 0.000 -2.05 0.000 0.000 0.000 -2.05
