 1166

    1
0.0000000000e+00 0.0000000000e+00 0.0000000000e+00
0.0000000000e+00 0.0000000000e+00 0.0000000000e+00
     1      1      1
 1  1  1     0.0000000000e+00
 1  1  2     0.0000000000e+00
 1  1  3     0.0000000000e+00
 1  2  1     0.0000000000e+00
 1  2  2     0.0000000000e+00
 1  2  3     2.7407515857e+01
 1  3  1     0.0000000000e+00
 1  3  2     2.7407515857e+01
 1  3  3     0.0000000000e+00
 2  1  1     0.0000000000e+00
 2  1  2     0.0000000000e+00
 2  1  3     2.7407515857e+01
 2  2  1     0.0000000000e+00
 2  2  2     0.0000000000e+00
 2  2  3     0.0000000000e+00
 2  3  1     2.7407515857e+01
 2  3  2     0.0000000000e+00
 2  3  3     0.0000000000e+00
 3  1  1     0.0000000000e+00
 3  1  2     2.7407515857e+01
 3  1  3     0.0000000000e+00
 3  2  1     2.7407515857e+01
 3  2  2     0.0000000000e+00
 3  2  3     0.0000000000e+00
 3  3  1     0.0000000000e+00
 3  3  2     0.0000000000e+00
 3  3  3     0.0000000000e+00

    2
0.0000000000e+00 0.0000000000e+00 0.0000000000e+00
0.0000000000e+00 0.0000000000e+00 0.0000000000e+00
     1      1      2
 1  1  1    -2.5151974502e+00
 1  1  2    -4.7373189780e+00
 1  1  3    -4.7373189780e+00
 1  2  1    -5.2500877287e+00
 1  2  2    -5.2500877287e+00
 1  2  3    -6.7991596979e+00
 1  3  1    -5.2500877287e+00
 1  3  2    -6.7991596979e+00
 1  3  3    -5.2500877287e+00
 2  1  1    -5.2500877287e+00
 2  1  2    -5.2500877287e+00
 2  1  3    -6.7991596979e+00
 2  2  1    -4.7373189780e+00
 2  2  2    -2.5151974502e+00
 2  2  3    -4.7373189780e+00
 2  3  1    -6.7991596979e+00
 2  3  2    -5.2500877287e+00
 2  3  3    -5.2500877287e+00
 3  1  1    -5.2500877287e+00
 3  1  2    -6.7991596979e+00
 3  1  3    -5.2500877287e+00
 3  2  1    -6.7991596979e+00
 3  2  2    -5.2500877287e+00
 3  2  3    -5.2500877287e+00
 3  3  1    -4.7373189780e+00
 3  3  2    -4.7373189780e+00
 3  3  3    -2.5151974502e+00

    3
0.0000000000e+00 0.0000000000e+00 0.0000000000e+00
0.0000000000e+00 2.8030060383e+00 2.8030060383e+00
     1      1      1
 1  1  1     8.4800308670e-02
 1  1  2    -2.9166730735e-02
 1  1  3    -2.9166730735e-02
 1  2  1    -7.9092315386e-02
 1  2  2    -6.8374067397e-02
 1  2  3     7.3102953508e-02
 1  3  1    -7.9092315386e-02
 1  3  2     7.3102953508e-02
 1  3  3    -6.8374067397e-02
 2  1  1    -7.9092315386e-02
 2  1  2    -6.8374067397e-02
 2  1  3     7.3102953508e-02
 2  2  1    -1.6472936436e-01
 2  2  2    -1.9231855183e-01
 2  2  3    -1.5514484264e-01
 2  3  1    -1.4325566372e-01
 2  3  2    -1.7828654686e-01
 2  3  3    -1.7828654686e-01
 3  1  1    -7.9092315386e-02
 3  1  2     7.3102953508e-02
 3  1  3    -6.8374067397e-02
 3  2  1    -1.4325566372e-01
 3  2  2    -1.7828654686e-01
 3  2  3    -1.7828654686e-01
 3  3  1    -1.6472936436e-01
 3  3  2    -1.5514484264e-01
 3  3  3    -1.9231855183e-01

    4
0.0000000000e+00 0.0000000000e+00 0.0000000000e+00
0.0000000000e+00 -2.8030060383e+00 -2.8030060383e+00
     1      1      1
 1  1  1     8.4800308670e-02
 1  1  2     2.9166730735e-02
 1  1  3     2.9166730735e-02
 1  2  1     7.9092315386e-02
 1  2  2    -6.8374067397e-02
 1  2  3     7.3102953508e-02
 1  3  1     7.9092315386e-02
 1  3  2     7.3102953508e-02
 1  3  3    -6.8374067397e-02
 2  1  1     7.9092315386e-02
 2  1  2    -6.8374067397e-02
 2  1  3     7.3102953508e-02
 2  2  1    -1.6472936436e-01
 2  2  2     1.9231855183e-01
 2  2  3     1.5514484264e-01
 2  3  1    -1.4325566372e-01
 2  3  2     1.7828654686e-01
 2  3  3     1.7828654686e-01
 3  1  1     7.9092315386e-02
 3  1  2     7.3102953508e-02
 3  1  3    -6.8374067397e-02
 3  2  1    -1.4325566372e-01
 3  2  2     1.7828654686e-01
 3  2  3     1.7828654686e-01
 3  3  1    -1.6472936436e-01
 3  3  2     1.5514484264e-01
 3  3  3     1.9231855183e-01

    5
0.0000000000e+00 0.0000000000e+00 0.0000000000e+00
0.0000000000e+00 -2.8030060383e+00 -2.8030060383e+00
     1      1      2
 1  1  1    -2.5151974502e+00
 1  1  2     4.7373189780e+00
 1  1  3     4.7373189780e+00
 1  2  1     5.2500877287e+00
 1  2  2    -5.2500877287e+00
 1  2  3    -6.7991596979e+00
 1  3  1     5.2500877287e+00
 1  3  2    -6.7991596979e+00
 1  3  3    -5.2500877287e+00
 2  1  1     5.2500877287e+00
 2  1  2    -5.2500877287e+00
 2  1  3    -6.7991596979e+00
 2  2  1    -4.7373189780e+00
 2  2  2     2.5151974502e+00
 2  2  3     4.7373189780e+00
 2  3  1    -6.7991596979e+00
 2  3  2     5.2500877287e+00
 2  3  3     5.2500877287e+00
 3  1  1     5.2500877287e+00
 3  1  2    -6.7991596979e+00
 3  1  3    -5.2500877287e+00
 3  2  1    -6.7991596979e+00
 3  2  2     5.2500877287e+00
 3  2  3     5.2500877287e+00
 3  3  1    -4.7373189780e+00
 3  3  2     4.7373189780e+00
 3  3  3     2.5151974502e+00

    6
0.0000000000e+00 0.0000000000e+00 0.0000000000e+00
2.8030060383e+00 0.0000000000e+00 2.8030060383e+00
     1      1      1
 1  1  1    -1.9231855183e-01
 1  1  2    -1.6472936436e-01
 1  1  3    -1.5514484264e-01
 1  2  1    -6.8374067397e-02
 1  2  2    -7.9092315386e-02
 1  2  3     7.3102953508e-02
 1  3  1    -1.7828654686e-01
 1  3  2    -1.4325566372e-01
 1  3  3    -1.7828654686e-01
 2  1  1    -6.8374067397e-02
 2  1  2    -7.9092315386e-02
 2  1  3     7.3102953508e-02
 2  2  1    -2.9166730735e-02
 2  2  2     8.4800308670e-02
 2  2  3    -2.9166730735e-02
 2  3  1     7.3102953508e-02
 2  3  2    -7.9092315386e-02
 2  3  3    -6.8374067397e-02
 3  1  1    -1.7828654686e-01
 3  1  2    -1.4325566372e-01
 3  1  3    -1.7828654686e-01
 3  2  1     7.3102953508e-02
 3  2  2    -7.9092315386e-02
 3  2  3    -6.8374067397e-02
 3  3  1    -1.5514484264e-01
 3  3  2    -1.6472936436e-01
 3  3  3    -1.9231855183e-01

    7
0.0000000000e+00 0.0000000000e+00 0.0000000000e+00
2.8030060383e+00 -2.8030060383e+00 0.0000000000e+00
     1      1      1
 1  1  1    -1.9231855183e-01
 1  1  2     1.5514484264e-01
 1  1  3     1.6472936436e-01
 1  2  1     1.7828654686e-01
 1  2  2    -1.7828654686e-01
 1  2  3    -1.4325566372e-01
 1  3  1     6.8374067397e-02
 1  3  2     7.3102953508e-02
 1  3  3    -7.9092315386e-02
 2  1  1     1.7828654686e-01
 2  1  2    -1.7828654686e-01
 2  1  3    -1.4325566372e-01
 2  2  1    -1.5514484264e-01
 2  2  2     1.9231855183e-01
 2  2  3     1.6472936436e-01
 2  3  1     7.3102953508e-02
 2  3  2     6.8374067397e-02
 2  3  3     7.9092315386e-02
 3  1  1     6.8374067397e-02
 3  1  2     7.3102953508e-02
 3  1  3    -7.9092315386e-02
 3  2  1     7.3102953508e-02
 3  2  2     6.8374067397e-02
 3  2  3     7.9092315386e-02
 3  3  1    -2.9166730735e-02
 3  3  2     2.9166730735e-02
 3  3  3    -8.4800308670e-02

    8
0.0000000000e+00 0.0000000000e+00 0.0000000000e+00
2.8030060383e+00 -2.8030060383e+00 2.7755575616e-16
     1      1      2
 1  1  1     3.3529071256e-02
 1  1  2    -8.6477056295e-03
 1  1  3     8.6477056295e-03
 1  2  1    -3.6898499178e-03
 1  2  2     4.3681232385e-03
 1  2  3    -2.8247871548e-02
 1  3  1     3.6898499178e-03
 1  3  2    -2.8247871548e-02
 1  3  3     4.3681232385e-03
 2  1  1    -3.6898499178e-03
 2  1  2     4.3681232385e-03
 2  1  3    -2.8247871548e-02
 2  2  1     3.6403752110e-02
 2  2  2    -4.9402074339e-02
 2  2  3     6.0836510142e-02
 2  3  1     3.6006655286e-02
 2  3  2    -6.3311719489e-02
 2  3  3     6.3311719489e-02
 3  1  1     3.6898499178e-03
 3  1  2    -2.8247871548e-02
 3  1  3     4.3681232385e-03
 3  2  1     3.6006655286e-02
 3  2  2    -6.3311719489e-02
 3  2  3     6.3311719489e-02
 3  3  1     3.6403752110e-02
 3  3  2    -6.0836510142e-02
 3  3  3     4.9402074339e-02

    9
0.0000000000e+00 0.0000000000e+00 0.0000000000e+00
-2.8030060383e+00 0.0000000000e+00 -2.8030060383e+00
     1      1      1
 1  1  1     1.9231855183e-01
 1  1  2    -1.6472936436e-01
 1  1  3     1.5514484264e-01
 1  2  1    -6.8374067397e-02
 1  2  2     7.9092315386e-02
 1  2  3     7.3102953508e-02
 1  3  1     1.7828654686e-01
 1  3  2    -1.4325566372e-01
 1  3  3     1.7828654686e-01
 2  1  1    -6.8374067397e-02
 2  1  2     7.9092315386e-02
 2  1  3     7.3102953508e-02
 2  2  1     2.9166730735e-02
 2  2  2     8.4800308670e-02
 2  2  3     2.9166730735e-02
 2  3  1     7.3102953508e-02
 2  3  2     7.9092315386e-02
 2  3  3    -6.8374067397e-02
 3  1  1     1.7828654686e-01
 3  1  2    -1.4325566372e-01
 3  1  3     1.7828654686e-01
 3  2  1     7.3102953508e-02
 3  2  2     7.9092315386e-02
 3  2  3    -6.8374067397e-02
 3  3  1     1.5514484264e-01
 3  3  2    -1.6472936436e-01
 3  3  3     1.9231855183e-01

   10
0.0000000000e+00 0.0000000000e+00 0.0000000000e+00
-2.8030060383e+00 0.0000000000e+00 -2.8030060383e+00
     1      1      2
 1  1  1     2.5151974502e+00
 1  1  2    -4.7373189780e+00
 1  1  3     4.7373189780e+00
 1  2  1    -5.2500877287e+00
 1  2  2     5.2500877287e+00
 1  2  3    -6.7991596979e+00
 1  3  1     5.2500877287e+00
 1  3  2    -6.7991596979e+00
 1  3  3     5.2500877287e+00
 2  1  1    -5.2500877287e+00
 2  1  2     5.2500877287e+00
 2  1  3    -6.7991596979e+00
 2  2  1     4.7373189780e+00
 2  2  2    -2.5151974502e+00
 2  2  3     4.7373189780e+00
 2  3  1    -6.7991596979e+00
 2  3  2     5.2500877287e+00
 2  3  3    -5.2500877287e+00
 3  1  1     5.2500877287e+00
 3  1  2    -6.7991596979e+00
 3  1  3     5.2500877287e+00
 3  2  1    -6.7991596979e+00
 3  2  2     5.2500877287e+00
 3  2  3    -5.2500877287e+00
 3  3  1     4.7373189780e+00
 3  3  2    -4.7373189780e+00
 3  3  3     2.5151974502e+00

   11
0.0000000000e+00 0.0000000000e+00 0.0000000000e+00
-2.8030060383e+00 2.8030060383e+00 0.0000000000e+00
     1      1      1
 1  1  1     1.9231855183e-01
 1  1  2    -1.5514484264e-01
 1  1  3     1.6472936436e-01
 1  2  1    -1.7828654686e-01
 1  2  2     1.7828654686e-01
 1  2  3    -1.4325566372e-01
 1  3  1     6.8374067397e-02
 1  3  2     7.3102953508e-02
 1  3  3     7.9092315386e-02
 2  1  1    -1.7828654686e-01
 2  1  2     1.7828654686e-01
 2  1  3    -1.4325566372e-01
 2  2  1     1.5514484264e-01
 2  2  2    -1.9231855183e-01
 2  2  3     1.6472936436e-01
 2  3  1     7.3102953508e-02
 2  3  2     6.8374067397e-02
 2  3  3    -7.9092315386e-02
 3  1  1     6.8374067397e-02
 3  1  2     7.3102953508e-02
 3  1  3     7.9092315386e-02
 3  2  1     7.3102953508e-02
 3  2  2     6.8374067397e-02
 3  2  3    -7.9092315386e-02
 3  3  1     2.9166730735e-02
 3  3  2    -2.9166730735e-02
 3  3  3    -8.4800308670e-02

   12
0.0000000000e+00 0.0000000000e+00 0.0000000000e+00
-2.8030060383e+00 2.8030060383e+00 2.7755575616e-16
     1      1      2
 1  1  1    -4.9402074339e-02
 1  1  2     3.6403752110e-02
 1  1  3     6.0836510142e-02
 1  2  1     4.3681232385e-03
 1  2  2    -3.6898499178e-03
 1  2  3    -2.8247871548e-02
 1  3  1    -6.3311719489e-02
 1  3  2     3.6006655286e-02
 1  3  3     6.3311719489e-02
 2  1  1     4.3681232385e-03
 2  1  2    -3.6898499178e-03
 2  1  3    -2.8247871548e-02
 2  2  1    -8.6477056295e-03
 2  2  2     3.3529071256e-02
 2  2  3     8.6477056295e-03
 2  3  1    -2.8247871548e-02
 2  3  2     3.6898499178e-03
 2  3  3     4.3681232385e-03
 3  1  1    -6.3311719489e-02
 3  1  2     3.6006655286e-02
 3  1  3     6.3311719489e-02
 3  2  1    -2.8247871548e-02
 3  2  2     3.6898499178e-03
 3  2  3     4.3681232385e-03
 3  3  1    -6.0836510142e-02
 3  3  2     3.6403752110e-02
 3  3  3     4.9402074339e-02

   13
0.0000000000e+00 0.0000000000e+00 0.0000000000e+00
-2.8030060383e+00 -2.8030060383e+00 -5.6060120766e+00
     1      1      2
 1  1  1    -4.9402074339e-02
 1  1  2    -6.0836510142e-02
 1  1  3    -3.6403752110e-02
 1  2  1     6.3311719489e-02
 1  2  2     6.3311719489e-02
 1  2  3     3.6006655286e-02
 1  3  1    -4.3681232385e-03
 1  3  2    -2.8247871548e-02
 1  3  3    -3.6898499178e-03
 2  1  1     6.3311719489e-02
 2  1  2     6.3311719489e-02
 2  1  3     3.6006655286e-02
 2  2  1    -6.0836510142e-02
 2  2  2    -4.9402074339e-02
 2  2  3    -3.6403752110e-02
 2  3  1    -2.8247871548e-02
 2  3  2    -4.3681232385e-03
 2  3  3    -3.6898499178e-03
 3  1  1    -4.3681232385e-03
 3  1  2    -2.8247871548e-02
 3  1  3    -3.6898499178e-03
 3  2  1    -2.8247871548e-02
 3  2  2    -4.3681232385e-03
 3  2  3    -3.6898499178e-03
 3  3  1    -8.6477056295e-03
 3  3  2    -8.6477056295e-03
 3  3  3    -3.3529071256e-02

   14
0.0000000000e+00 0.0000000000e+00 0.0000000000e+00
2.8030060383e+00 2.8030060383e+00 0.0000000000e+00
     1      1      1
 1  1  1    -1.9231855183e-01
 1  1  2    -1.5514484264e-01
 1  1  3    -1.6472936436e-01
 1  2  1    -1.7828654686e-01
 1  2  2    -1.7828654686e-01
 1  2  3    -1.4325566372e-01
 1  3  1    -6.8374067397e-02
 1  3  2     7.3102953508e-02
 1  3  3    -7.9092315386e-02
 2  1  1    -1.7828654686e-01
 2  1  2    -1.7828654686e-01
 2  1  3    -1.4325566372e-01
 2  2  1    -1.5514484264e-01
 2  2  2    -1.9231855183e-01
 2  2  3    -1.6472936436e-01
 2  3  1     7.3102953508e-02
 2  3  2    -6.8374067397e-02
 2  3  3    -7.9092315386e-02
 3  1  1    -6.8374067397e-02
 3  1  2     7.3102953508e-02
 3  1  3    -7.9092315386e-02
 3  2  1     7.3102953508e-02
 3  2  2    -6.8374067397e-02
 3  2  3    -7.9092315386e-02
 3  3  1    -2.9166730735e-02
 3  3  2    -2.9166730735e-02
 3  3  3     8.4800308670e-02

   15
0.0000000000e+00 0.0000000000e+00 0.0000000000e+00
2.8030060383e+00 0.0000000000e+00 -2.8030060383e+00
     1      1      1
 1  1  1    -1.9231855183e-01
 1  1  2     1.6472936436e-01
 1  1  3     1.5514484264e-01
 1  2  1     6.8374067397e-02
 1  2  2    -7.9092315386e-02
 1  2  3     7.3102953508e-02
 1  3  1     1.7828654686e-01
 1  3  2    -1.4325566372e-01
 1  3  3    -1.7828654686e-01
 2  1  1     6.8374067397e-02
 2  1  2    -7.9092315386e-02
 2  1  3     7.3102953508e-02
 2  2  1    -2.9166730735e-02
 2  2  2    -8.4800308670e-02
 2  2  3     2.9166730735e-02
 2  3  1     7.3102953508e-02
 2  3  2     7.9092315386e-02
 2  3  3     6.8374067397e-02
 3  1  1     1.7828654686e-01
 3  1  2    -1.4325566372e-01
 3  1  3    -1.7828654686e-01
 3  2  1     7.3102953508e-02
 3  2  2     7.9092315386e-02
 3  2  3     6.8374067397e-02
 3  3  1    -1.5514484264e-01
 3  3  2     1.6472936436e-01
 3  3  3     1.9231855183e-01

   16
0.0000000000e+00 0.0000000000e+00 0.0000000000e+00
2.8030060383e+00 2.7755575616e-16 -2.8030060383e+00
     1      1      2
 1  1  1     3.3529071256e-02
 1  1  2     8.6477056295e-03
 1  1  3    -8.6477056295e-03
 1  2  1     3.6898499178e-03
 1  2  2     4.3681232385e-03
 1  2  3    -2.8247871548e-02
 1  3  1    -3.6898499178e-03
 1  3  2    -2.8247871548e-02
 1  3  3     4.3681232385e-03
 2  1  1     3.6898499178e-03
 2  1  2     4.3681232385e-03
 2  1  3    -2.8247871548e-02
 2  2  1     3.6403752110e-02
 2  2  2     4.9402074339e-02
 2  2  3    -6.0836510142e-02
 2  3  1     3.6006655286e-02
 2  3  2     6.3311719489e-02
 2  3  3    -6.3311719489e-02
 3  1  1    -3.6898499178e-03
 3  1  2    -2.8247871548e-02
 3  1  3     4.3681232385e-03
 3  2  1     3.6006655286e-02
 3  2  2     6.3311719489e-02
 3  2  3    -6.3311719489e-02
 3  3  1     3.6403752110e-02
 3  3  2     6.0836510142e-02
 3  3  3    -4.9402074339e-02

   17
0.0000000000e+00 0.0000000000e+00 0.0000000000e+00
5.6060120766e+00 0.0000000000e+00 0.0000000000e+00
     1      1      1
 1  1  1    -3.2535743631e-02
 1  1  2     0.0000000000e+00
 1  1  3     0.0000000000e+00
 1  2  1     0.0000000000e+00
 1  2  2     1.0196326798e-02
 1  2  3    -3.0708632425e-02
 1  3  1     0.0000000000e+00
 1  3  2    -3.0708632425e-02
 1  3  3     1.0196326798e-02
 2  1  1     0.0000000000e+00
 2  1  2     1.0196326798e-02
 2  1  3    -3.0708632425e-02
 2  2  1    -2.1969679407e-02
 2  2  2     0.0000000000e+00
 2  2  3     0.0000000000e+00
 2  3  1    -8.9435786924e-03
 2  3  2     0.0000000000e+00
 2  3  3     0.0000000000e+00
 3  1  1     0.0000000000e+00
 3  1  2    -3.0708632425e-02
 3  1  3     1.0196326798e-02
 3  2  1    -8.9435786924e-03
 3  2  2     0.0000000000e+00
 3  2  3     0.0000000000e+00
 3  3  1    -2.1969679407e-02
 3  3  2     0.0000000000e+00
 3  3  3     0.0000000000e+00

   18
0.0000000000e+00 0.0000000000e+00 0.0000000000e+00
0.0000000000e+00 2.8030060383e+00 -2.8030060383e+00
     1      1      1
 1  1  1    -8.4800308670e-02
 1  1  2    -2.9166730735e-02
 1  1  3     2.9166730735e-02
 1  2  1    -7.9092315386e-02
 1  2  2     6.8374067397e-02
 1  2  3     7.3102953508e-02
 1  3  1     7.9092315386e-02
 1  3  2     7.3102953508e-02
 1  3  3     6.8374067397e-02
 2  1  1    -7.9092315386e-02
 2  1  2     6.8374067397e-02
 2  1  3     7.3102953508e-02
 2  2  1     1.6472936436e-01
 2  2  2    -1.9231855183e-01
 2  2  3     1.5514484264e-01
 2  3  1    -1.4325566372e-01
 2  3  2     1.7828654686e-01
 2  3  3    -1.7828654686e-01
 3  1  1     7.9092315386e-02
 3  1  2     7.3102953508e-02
 3  1  3     6.8374067397e-02
 3  2  1    -1.4325566372e-01
 3  2  2     1.7828654686e-01
 3  2  3    -1.7828654686e-01
 3  3  1     1.6472936436e-01
 3  3  2    -1.5514484264e-01
 3  3  3     1.9231855183e-01

   19
0.0000000000e+00 0.0000000000e+00 0.0000000000e+00
2.7755575616e-16 2.8030060383e+00 -2.8030060383e+00
     1      1      2
 1  1  1     4.9402074339e-02
 1  1  2     3.6403752110e-02
 1  1  3    -6.0836510142e-02
 1  2  1     4.3681232385e-03
 1  2  2     3.6898499178e-03
 1  2  3    -2.8247871548e-02
 1  3  1     6.3311719489e-02
 1  3  2     3.6006655286e-02
 1  3  3    -6.3311719489e-02
 2  1  1     4.3681232385e-03
 2  1  2     3.6898499178e-03
 2  1  3    -2.8247871548e-02
 2  2  1     8.6477056295e-03
 2  2  2     3.3529071256e-02
 2  2  3    -8.6477056295e-03
 2  3  1    -2.8247871548e-02
 2  3  2    -3.6898499178e-03
 2  3  3     4.3681232385e-03
 3  1  1     6.3311719489e-02
 3  1  2     3.6006655286e-02
 3  1  3    -6.3311719489e-02
 3  2  1    -2.8247871548e-02
 3  2  2    -3.6898499178e-03
 3  2  3     4.3681232385e-03
 3  3  1     6.0836510142e-02
 3  3  2     3.6403752110e-02
 3  3  3    -4.9402074339e-02

   20
0.0000000000e+00 0.0000000000e+00 0.0000000000e+00
0.0000000000e+00 5.6060120766e+00 0.0000000000e+00
     1      1      1
 1  1  1     0.0000000000e+00
 1  1  2    -2.1969679407e-02
 1  1  3     0.0000000000e+00
 1  2  1     1.0196326798e-02
 1  2  2     0.0000000000e+00
 1  2  3    -3.0708632425e-02
 1  3  1     0.0000000000e+00
 1  3  2    -8.9435786924e-03
 1  3  3     0.0000000000e+00
 2  1  1     1.0196326798e-02
 2  1  2     0.0000000000e+00
 2  1  3    -3.0708632425e-02
 2  2  1     0.0000000000e+00
 2  2  2    -3.2535743631e-02
 2  2  3     0.0000000000e+00
 2  3  1    -3.0708632425e-02
 2  3  2     0.0000000000e+00
 2  3  3     1.0196326798e-02
 3  1  1     0.0000000000e+00
 3  1  2    -8.9435786924e-03
 3  1  3     0.0000000000e+00
 3  2  1    -3.0708632425e-02
 3  2  2     0.0000000000e+00
 3  2  3     1.0196326798e-02
 3  3  1     0.0000000000e+00
 3  3  2    -2.1969679407e-02
 3  3  3     0.0000000000e+00

   21
0.0000000000e+00 0.0000000000e+00 0.0000000000e+00
0.0000000000e+00 0.0000000000e+00 -5.6060120766e+00
     1      1      1
 1  1  1     0.0000000000e+00
 1  1  2     0.0000000000e+00
 1  1  3     2.1969679407e-02
 1  2  1     0.0000000000e+00
 1  2  2     0.0000000000e+00
 1  2  3    -8.9435786924e-03
 1  3  1    -1.0196326798e-02
 1  3  2    -3.0708632425e-02
 1  3  3     0.0000000000e+00
 2  1  1     0.0000000000e+00
 2  1  2     0.0000000000e+00
 2  1  3    -8.9435786924e-03
 2  2  1     0.0000000000e+00
 2  2  2     0.0000000000e+00
 2  2  3     2.1969679407e-02
 2  3  1    -3.0708632425e-02
 2  3  2    -1.0196326798e-02
 2  3  3     0.0000000000e+00
 3  1  1    -1.0196326798e-02
 3  1  2    -3.0708632425e-02
 3  1  3     0.0000000000e+00
 3  2  1    -3.0708632425e-02
 3  2  2    -1.0196326798e-02
 3  2  3     0.0000000000e+00
 3  3  1     0.0000000000e+00
 3  3  2     0.0000000000e+00
 3  3  3     3.2535743631e-02

   22
0.0000000000e+00 0.0000000000e+00 0.0000000000e+00
2.7755575616e-16 2.7755575616e-16 -5.6060120766e+00
     1      1      2
 1  1  1     4.9402074339e-02
 1  1  2     6.0836510142e-02
 1  1  3    -3.6403752110e-02
 1  2  1    -6.3311719489e-02
 1  2  2    -6.3311719489e-02
 1  2  3     3.6006655286e-02
 1  3  1    -4.3681232385e-03
 1  3  2    -2.8247871548e-02
 1  3  3     3.6898499178e-03
 2  1  1    -6.3311719489e-02
 2  1  2    -6.3311719489e-02
 2  1  3     3.6006655286e-02
 2  2  1     6.0836510142e-02
 2  2  2     4.9402074339e-02
 2  2  3    -3.6403752110e-02
 2  3  1    -2.8247871548e-02
 2  3  2    -4.3681232385e-03
 2  3  3     3.6898499178e-03
 3  1  1    -4.3681232385e-03
 3  1  2    -2.8247871548e-02
 3  1  3     3.6898499178e-03
 3  2  1    -2.8247871548e-02
 3  2  2    -4.3681232385e-03
 3  2  3     3.6898499178e-03
 3  3  1     8.6477056295e-03
 3  3  2     8.6477056295e-03
 3  3  3    -3.3529071256e-02

   23
0.0000000000e+00 0.0000000000e+00 0.0000000000e+00
-2.8030060383e+00 -2.8030060383e+00 0.0000000000e+00
     1      1      1
 1  1  1     1.9231855183e-01
 1  1  2     1.5514484264e-01
 1  1  3    -1.6472936436e-01
 1  2  1     1.7828654686e-01
 1  2  2     1.7828654686e-01
 1  2  3    -1.4325566372e-01
 1  3  1    -6.8374067397e-02
 1  3  2     7.3102953508e-02
 1  3  3     7.9092315386e-02
 2  1  1     1.7828654686e-01
 2  1  2     1.7828654686e-01
 2  1  3    -1.4325566372e-01
 2  2  1     1.5514484264e-01
 2  2  2     1.9231855183e-01
 2  2  3    -1.6472936436e-01
 2  3  1     7.3102953508e-02
 2  3  2    -6.8374067397e-02
 2  3  3     7.9092315386e-02
 3  1  1    -6.8374067397e-02
 3  1  2     7.3102953508e-02
 3  1  3     7.9092315386e-02
 3  2  1     7.3102953508e-02
 3  2  2    -6.8374067397e-02
 3  2  3     7.9092315386e-02
 3  3  1     2.9166730735e-02
 3  3  2     2.9166730735e-02
 3  3  3     8.4800308670e-02

   24
0.0000000000e+00 0.0000000000e+00 0.0000000000e+00
-2.8030060383e+00 -2.8030060383e+00 0.0000000000e+00
     1      1      2
 1  1  1     2.5151974502e+00
 1  1  2     4.7373189780e+00
 1  1  3    -4.7373189780e+00
 1  2  1     5.2500877287e+00
 1  2  2     5.2500877287e+00
 1  2  3    -6.7991596979e+00
 1  3  1    -5.2500877287e+00
 1  3  2    -6.7991596979e+00
 1  3  3     5.2500877287e+00
 2  1  1     5.2500877287e+00
 2  1  2     5.2500877287e+00
 2  1  3    -6.7991596979e+00
 2  2  1     4.7373189780e+00
 2  2  2     2.5151974502e+00
 2  2  3    -4.7373189780e+00
 2  3  1    -6.7991596979e+00
 2  3  2    -5.2500877287e+00
 2  3  3     5.2500877287e+00
 3  1  1    -5.2500877287e+00
 3  1  2    -6.7991596979e+00
 3  1  3     5.2500877287e+00
 3  2  1    -6.7991596979e+00
 3  2  2    -5.2500877287e+00
 3  2  3     5.2500877287e+00
 3  3  1     4.7373189780e+00
 3  3  2     4.7373189780e+00
 3  3  3    -2.5151974502e+00

   25
0.0000000000e+00 0.0000000000e+00 0.0000000000e+00
-2.8030060383e+00 0.0000000000e+00 2.8030060383e+00
     1      1      1
 1  1  1     1.9231855183e-01
 1  1  2     1.6472936436e-01
 1  1  3    -1.5514484264e-01
 1  2  1     6.8374067397e-02
 1  2  2     7.9092315386e-02
 1  2  3     7.3102953508e-02
 1  3  1    -1.7828654686e-01
 1  3  2    -1.4325566372e-01
 1  3  3     1.7828654686e-01
 2  1  1     6.8374067397e-02
 2  1  2     7.9092315386e-02
 2  1  3     7.3102953508e-02
 2  2  1     2.9166730735e-02
 2  2  2    -8.4800308670e-02
 2  2  3    -2.9166730735e-02
 2  3  1     7.3102953508e-02
 2  3  2    -7.9092315386e-02
 2  3  3     6.8374067397e-02
 3  1  1    -1.7828654686e-01
 3  1  2    -1.4325566372e-01
 3  1  3     1.7828654686e-01
 3  2  1     7.3102953508e-02
 3  2  2    -7.9092315386e-02
 3  2  3     6.8374067397e-02
 3  3  1     1.5514484264e-01
 3  3  2     1.6472936436e-01
 3  3  3    -1.9231855183e-01

   26
0.0000000000e+00 0.0000000000e+00 0.0000000000e+00
-2.8030060383e+00 2.7755575616e-16 2.8030060383e+00
     1      1      2
 1  1  1    -4.9402074339e-02
 1  1  2     6.0836510142e-02
 1  1  3     3.6403752110e-02
 1  2  1    -6.3311719489e-02
 1  2  2     6.3311719489e-02
 1  2  3     3.6006655286e-02
 1  3  1     4.3681232385e-03
 1  3  2    -2.8247871548e-02
 1  3  3    -3.6898499178e-03
 2  1  1    -6.3311719489e-02
 2  1  2     6.3311719489e-02
 2  1  3     3.6006655286e-02
 2  2  1    -6.0836510142e-02
 2  2  2     4.9402074339e-02
 2  2  3     3.6403752110e-02
 2  3  1    -2.8247871548e-02
 2  3  2     4.3681232385e-03
 2  3  3     3.6898499178e-03
 3  1  1     4.3681232385e-03
 3  1  2    -2.8247871548e-02
 3  1  3    -3.6898499178e-03
 3  2  1    -2.8247871548e-02
 3  2  2     4.3681232385e-03
 3  2  3     3.6898499178e-03
 3  3  1    -8.6477056295e-03
 3  3  2     8.6477056295e-03
 3  3  3     3.3529071256e-02

   27
0.0000000000e+00 0.0000000000e+00 0.0000000000e+00
-2.8030060383e+00 -5.6060120766e+00 -2.8030060383e+00
     1      1      2
 1  1  1    -4.9402074339e-02
 1  1  2    -3.6403752110e-02
 1  1  3    -6.0836510142e-02
 1  2  1    -4.3681232385e-03
 1  2  2    -3.6898499178e-03
 1  2  3    -2.8247871548e-02
 1  3  1     6.3311719489e-02
 1  3  2     3.6006655286e-02
 1  3  3     6.3311719489e-02
 2  1  1    -4.3681232385e-03
 2  1  2    -3.6898499178e-03
 2  1  3    -2.8247871548e-02
 2  2  1    -8.6477056295e-03
 2  2  2    -3.3529071256e-02
 2  2  3    -8.6477056295e-03
 2  3  1    -2.8247871548e-02
 2  3  2    -3.6898499178e-03
 2  3  3    -4.3681232385e-03
 3  1  1     6.3311719489e-02
 3  1  2     3.6006655286e-02
 3  1  3     6.3311719489e-02
 3  2  1    -2.8247871548e-02
 3  2  2    -3.6898499178e-03
 3  2  3    -4.3681232385e-03
 3  3  1    -6.0836510142e-02
 3  3  2    -3.6403752110e-02
 3  3  3    -4.9402074339e-02

   28
0.0000000000e+00 0.0000000000e+00 0.0000000000e+00
0.0000000000e+00 -2.8030060383e+00 2.8030060383e+00
     1      1      1
 1  1  1    -8.4800308670e-02
 1  1  2     2.9166730735e-02
 1  1  3    -2.9166730735e-02
 1  2  1     7.9092315386e-02
 1  2  2     6.8374067397e-02
 1  2  3     7.3102953508e-02
 1  3  1    -7.9092315386e-02
 1  3  2     7.3102953508e-02
 1  3  3     6.8374067397e-02
 2  1  1     7.9092315386e-02
 2  1  2     6.8374067397e-02
 2  1  3     7.3102953508e-02
 2  2  1     1.6472936436e-01
 2  2  2     1.9231855183e-01
 2  2  3    -1.5514484264e-01
 2  3  1    -1.4325566372e-01
 2  3  2    -1.7828654686e-01
 2  3  3     1.7828654686e-01
 3  1  1    -7.9092315386e-02
 3  1  2     7.3102953508e-02
 3  1  3     6.8374067397e-02
 3  2  1    -1.4325566372e-01
 3  2  2    -1.7828654686e-01
 3  2  3     1.7828654686e-01
 3  3  1     1.6472936436e-01
 3  3  2     1.5514484264e-01
 3  3  3    -1.9231855183e-01

   29
0.0000000000e+00 0.0000000000e+00 0.0000000000e+00
2.7755575616e-16 -2.8030060383e+00 2.8030060383e+00
     1      1      2
 1  1  1     4.9402074339e-02
 1  1  2    -6.0836510142e-02
 1  1  3     3.6403752110e-02
 1  2  1     6.3311719489e-02
 1  2  2    -6.3311719489e-02
 1  2  3     3.6006655286e-02
 1  3  1     4.3681232385e-03
 1  3  2    -2.8247871548e-02
 1  3  3     3.6898499178e-03
 2  1  1     6.3311719489e-02
 2  1  2    -6.3311719489e-02
 2  1  3     3.6006655286e-02
 2  2  1     6.0836510142e-02
 2  2  2    -4.9402074339e-02
 2  2  3     3.6403752110e-02
 2  3  1    -2.8247871548e-02
 2  3  2     4.3681232385e-03
 2  3  3    -3.6898499178e-03
 3  1  1     4.3681232385e-03
 3  1  2    -2.8247871548e-02
 3  1  3     3.6898499178e-03
 3  2  1    -2.8247871548e-02
 3  2  2     4.3681232385e-03
 3  2  3    -3.6898499178e-03
 3  3  1     8.6477056295e-03
 3  3  2    -8.6477056295e-03
 3  3  3     3.3529071256e-02

   30
0.0000000000e+00 0.0000000000e+00 0.0000000000e+00
0.0000000000e+00 0.0000000000e+00 5.6060120766e+00
     1      1      1
 1  1  1     0.0000000000e+00
 1  1  2     0.0000000000e+00
 1  1  3    -2.1969679407e-02
 1  2  1     0.0000000000e+00
 1  2  2     0.0000000000e+00
 1  2  3    -8.9435786924e-03
 1  3  1     1.0196326798e-02
 1  3  2    -3.0708632425e-02
 1  3  3     0.0000000000e+00
 2  1  1     0.0000000000e+00
 2  1  2     0.0000000000e+00
 2  1  3    -8.9435786924e-03
 2  2  1     0.0000000000e+00
 2  2  2     0.0000000000e+00
 2  2  3    -2.1969679407e-02
 2  3  1    -3.0708632425e-02
 2  3  2     1.0196326798e-02
 2  3  3     0.0000000000e+00
 3  1  1     1.0196326798e-02
 3  1  2    -3.0708632425e-02
 3  1  3     0.0000000000e+00
 3  2  1    -3.0708632425e-02
 3  2  2     1.0196326798e-02
 3  2  3     0.0000000000e+00
 3  3  1     0.0000000000e+00
 3  3  2     0.0000000000e+00
 3  3  3    -3.2535743631e-02

   31
0.0000000000e+00 0.0000000000e+00 0.0000000000e+00
0.0000000000e+00 -5.6060120766e+00 0.0000000000e+00
     1      1      1
 1  1  1     0.0000000000e+00
 1  1  2     2.1969679407e-02
 1  1  3     0.0000000000e+00
 1  2  1    -1.0196326798e-02
 1  2  2     0.0000000000e+00
 1  2  3    -3.0708632425e-02
 1  3  1     0.0000000000e+00
 1  3  2    -8.9435786924e-03
 1  3  3     0.0000000000e+00
 2  1  1    -1.0196326798e-02
 2  1  2     0.0000000000e+00
 2  1  3    -3.0708632425e-02
 2  2  1     0.0000000000e+00
 2  2  2     3.2535743631e-02
 2  2  3     0.0000000000e+00
 2  3  1    -3.0708632425e-02
 2  3  2     0.0000000000e+00
 2  3  3    -1.0196326798e-02
 3  1  1     0.0000000000e+00
 3  1  2    -8.9435786924e-03
 3  1  3     0.0000000000e+00
 3  2  1    -3.0708632425e-02
 3  2  2     0.0000000000e+00
 3  2  3    -1.0196326798e-02
 3  3  1     0.0000000000e+00
 3  3  2     2.1969679407e-02
 3  3  3     0.0000000000e+00

   32
0.0000000000e+00 0.0000000000e+00 0.0000000000e+00
2.7755575616e-16 -5.6060120766e+00 2.7755575616e-16
     1      1      2
 1  1  1     4.9402074339e-02
 1  1  2    -3.6403752110e-02
 1  1  3     6.0836510142e-02
 1  2  1    -4.3681232385e-03
 1  2  2     3.6898499178e-03
 1  2  3    -2.8247871548e-02
 1  3  1    -6.3311719489e-02
 1  3  2     3.6006655286e-02
 1  3  3    -6.3311719489e-02
 2  1  1    -4.3681232385e-03
 2  1  2     3.6898499178e-03
 2  1  3    -2.8247871548e-02
 2  2  1     8.6477056295e-03
 2  2  2    -3.3529071256e-02
 2  2  3     8.6477056295e-03
 2  3  1    -2.8247871548e-02
 2  3  2     3.6898499178e-03
 2  3  3    -4.3681232385e-03
 3  1  1    -6.3311719489e-02
 3  1  2     3.6006655286e-02
 3  1  3    -6.3311719489e-02
 3  2  1    -2.8247871548e-02
 3  2  2     3.6898499178e-03