14.400
19.643 0.000 0.000 0.000 19.643 0.000 0.000 0.000 19.643
2.67810 0.000 0.000 0.000 2.67810 0.000 0.000 0.000 2.67810
-2.67810 0.000 0.000 0.000 -2.67810 0.000 0.000 0.000 -2.67810
