 1166

    1
0.0000000000e+00 0.0000000000e+00 0.0000000000e+00
0.0000000000e+00 0.0000000000e+00 0.0000000000e+00
     1      1      1
 1  1  1     0.0000000000e+00
 1  1  2     0.0000000000e+00
 1  1  3     0.0000000000e+00
 1  2  1     0.0000000000e+00
 1  2  2     0.0000000000e+00
 1  2  3     1.8747163600e+01
 1  3  1     0.0000000000e+00
 1  3  2     1.8747163600e+01
 1  3  3     0.0000000000e+00
 2  1  1     0.0000000000e+00
 2  1  2     0.0000000000e+00
 2  1  3     1.8747163600e+01
 2  2  1     0.0000000000e+00
 2  2  2     0.0000000000e+00
 2  2  3     0.0000000000e+00
 2  3  1     1.8747163600e+01
 2  3  2     0.0000000000e+00
 2  3  3     0.0000000000e+00
 3  1  1     0.0000000000e+00
 3  1  2     1.8747163600e+01
 3  1  3     0.0000000000e+00
 3  2  1     1.8747163600e+01
 3  2  2     0.0000000000e+00
 3  2  3     0.0000000000e+00
 3  3  1     0.0000000000e+00
 3  3  2     0.0000000000e+00
 3  3  3     0.0000000000e+00

    2
0.0000000000e+00 0.0000000000e+00 0.0000000000e+00
0.0000000000e+00 0.0000000000e+00 0.0000000000e+00
     1      1      2
 1  1  1    -1.5921609706e+00
 1  1  2    -3.2811094633e+00
 1  1  3    -3.2811094633e+00
 1  2  1    -3.6818525921e+00
 1  2  2    -3.6818525921e+00
 1  2  3    -4.6608776315e+00
 1  3  1    -3.6818525921e+00
 1  3  2    -4.6608776315e+00
 1  3  3    -3.6818525921e+00
 2  1  1    -3.6818525921e+00
 2  1  2    -3.6818525921e+00
 2  1  3    -4.6608776315e+00
 2  2  1    -3.2811094633e+00
 2  2  2    -1.5921609706e+00
 2  2  3    -3.2811094633e+00
 2  3  1    -4.6608776315e+00
 2  3  2    -3.6818525921e+00
 2  3  3    -3.6818525921e+00
 3  1  1    -3.6818525921e+00
 3  1  2    -4.6608776315e+00
 3  1  3    -3.6818525921e+00
 3  2  1    -4.6608776315e+00
 3  2  2    -3.6818525921e+00
 3  2  3    -3.6818525921e+00
 3  3  1    -3.2811094633e+00
 3  3  2    -3.2811094633e+00
 3  3  3    -1.5921609706e+00

    3
0.0000000000e+00 0.0000000000e+00 0.0000000000e+00
0.0000000000e+00 3.2223894816e+00 3.2223894816e+00
     1      1      1
 1  1  1     3.5289527917e-02
 1  1  2    -3.4038054092e-02
 1  1  3    -3.4038054092e-02
 1  2  1    -5.7259969697e-02
 1  2  2    -3.5405817843e-02
 1  2  3     3.2268996181e-02
 1  3  1    -5.7259969697e-02
 1  3  2     3.2268996181e-02
 1  3  3    -3.5405817843e-02
 2  1  1    -5.7259969697e-02
 2  1  2    -3.5405817843e-02
 2  1  3     3.2268996181e-02
 2  2  1    -6.3875674484e-02
 2  2  2    -1.1422383946e-01
 2  2  3    -7.7037138890e-02
 2  3  1    -9.1440979876e-02
 2  3  2    -9.0855268206e-02
 2  3  3    -9.0855268206e-02
 3  1  1    -5.7259969697e-02
 3  1  2     3.2268996181e-02
 3  1  3    -3.5405817843e-02
 3  2  1    -9.1440979876e-02
 3  2  2    -9.0855268206e-02
 3  2  3    -9.0855268206e-02
 3  3  1    -6.3875674484e-02
 3  3  2    -7.7037138890e-02
 3  3  3    -1.1422383946e-01

    4
0.0000000000e+00 0.0000000000e+00 0.0000000000e+00
0.0000000000e+00 -3.2223894816e+00 -3.2223894816e+00
     1      1      1
 1  1  1     3.5289527917e-02
 1  1  2     3.4038054092e-02
 1  1  3     3.4038054092e-02
 1  2  1     5.7259969697e-02
 1  2  2    -3.5405817843e-02
 1  2  3     3.2268996181e-02
 1  3  1     5.7259969697e-02
 1  3  2     3.2268996181e-02
 1  3  3    -3.5405817843e-02
 2  1  1     5.7259969697e-02
 2  1  2    -3.5405817843e-02
 2  1  3     3.2268996181e-02
 2  2  1    -6.3875674484e-02
 2  2  2     1.1422383946e-01
 2  2  3     7.7037138890e-02
 2  3  1    -9.1440979876e-02
 2  3  2     9.0855268206e-02
 2  3  3     9.0855268206e-02
 3  1  1     5.7259969697e-02
 3  1  2     3.2268996181e-02
 3  1  3    -3.5405817843e-02
 3  2  1    -9.1440979876e-02
 3  2  2     9.0855268206e-02
 3  2  3     9.0855268206e-02
 3  3  1    -6.3875674484e-02
 3  3  2     7.7037138890e-02
 3  3  3     1.1422383946e-01

    5
0.0000000000e+00 0.0000000000e+00 0.0000000000e+00
0.0000000000e+00 -3.2223894816e+00 -3.2223894816e+00
     1      1      2
 1  1  1    -1.5921609706e+00
 1  1  2     3.2811094633e+00
 1  1  3     3.2811094633e+00
 1  2  1     3.6818525921e+00
 1  2  2    -3.6818525921e+00
 1  2  3    -4.6608776315e+00
 1  3  1     3.6818525921e+00
 1  3  2    -4.6608776315e+00
 1  3  3    -3.6818525921e+00
 2  1  1     3.6818525921e+00
 2  1  2    -3.6818525921e+00
 2  1  3    -4.6608776315e+00
 2  2  1    -3.2811094633e+00
 2  2  2     1.5921609706e+00
 2  2  3     3.2811094633e+00
 2  3  1    -4.6608776315e+00
 2  3  2     3.6818525921e+00
 2  3  3     3.6818525921e+00
 3  1  1     3.6818525921e+00
 3  1  2    -4.6608776315e+00
 3  1  3    -3.6818525921e+00
 3  2  1    -4.6608776315e+00
 3  2  2     3.6818525921e+00
 3  2  3     3.6818525921e+00
 3  3  1    -3.2811094633e+00
 3  3  2     3.2811094633e+00
 3  3  3     1.5921609706e+00

    6
0.0000000000e+00 0.0000000000e+00 0.0000000000e+00
3.2223894816e+00 0.0000000000e+00 3.2223894816e+00
     1      1      1
 1  1  1    -1.1422383946e-01
 1  1  2    -6.3875674484e-02
 1  1  3    -7.7037138890e-02
 1  2  1    -3.5405817843e-02
 1  2  2    -5.7259969697e-02
 1  2  3     3.2268996181e-02
 1  3  1    -9.0855268206e-02
 1  3  2    -9.1440979876e-02
 1  3  3    -9.0855268206e-02
 2  1  1    -3.5405817843e-02
 2  1  2    -5.7259969697e-02
 2  1  3     3.2268996181e-02
 2  2  1    -3.4038054092e-02
 2  2  2     3.5289527917e-02
 2  2  3    -3.4038054092e-02
 2  3  1     3.2268996181e-02
 2  3  2    -5.7259969697e-02
 2  3  3    -3.5405817843e-02
 3  1  1    -9.0855268206e-02
 3  1  2    -9.1440979876e-02
 3  1  3    -9.0855268206e-02
 3  2  1     3.2268996181e-02
 3  2  2    -5.7259969697e-02
 3  2  3    -3.5405817843e-02
 3  3  1    -7.7037138890e-02
 3  3  2    -6.3875674484e-02
 3  3  3    -1.1422383946e-01

    7
0.0000000000e+00 0.0000000000e+00 0.0000000000e+00
3.2223894816e+00 -3.2223894816e+00 5.5511151231e-16
     1      1      1
 1  1  1    -1.1422383946e-01
 1  1  2     7.7037138890e-02
 1  1  3     6.3875674484e-02
 1  2  1     9.0855268206e-02
 1  2  2    -9.0855268206e-02
 1  2  3    -9.1440979876e-02
 1  3  1     3.5405817843e-02
 1  3  2     3.2268996181e-02
 1  3  3    -5.7259969697e-02
 2  1  1     9.0855268206e-02
 2  1  2    -9.0855268206e-02
 2  1  3    -9.1440979876e-02
 2  2  1    -7.7037138890e-02
 2  2  2     1.1422383946e-01
 2  2  3     6.3875674484e-02
 2  3  1     3.2268996181e-02
 2  3  2     3.5405817843e-02
 2  3  3     5.7259969697e-02
 3  1  1     3.5405817843e-02
 3  1  2     3.2268996181e-02
 3  1  3    -5.7259969697e-02
 3  2  1     3.2268996181e-02
 3  2  2     3.5405817843e-02
 3  2  3     5.7259969697e-02
 3  3  1    -3.4038054092e-02
 3  3  2     3.4038054092e-02
 3  3  3    -3.5289527917e-02

    8
0.0000000000e+00 0.0000000000e+00 0.0000000000e+00
3.2223894816e+00 -3.2223894816e+00 0.0000000000e+00
     1      1      2
 1  1  1     2.7667260469e-02
 1  1  2    -1.0047471729e-02
 1  1  3     1.0047471729e-02
 1  2  1    -6.7276830057e-03
 1  2  2     7.9302694473e-03
 1  2  3    -4.9109062611e-03
 1  3  1     6.7276830057e-03
 1  3  2    -4.9109062611e-03
 1  3  3     7.9302694473e-03
 2  1  1    -6.7276830057e-03
 2  1  2     7.9302694473e-03
 2  1  3    -4.9109062611e-03
 2  2  1     1.3086402957e-02
 2  2  2    -2.5461215108e-02
 2  2  3     2.5556897893e-02
 2  3  1     1.2471886367e-02
 2  3  2    -3.7034091604e-02
 2  3  3     3.7034091604e-02
 3  1  1     6.7276830057e-03
 3  1  2    -4.9109062611e-03
 3  1  3     7.9302694473e-03
 3  2  1     1.2471886367e-02
 3  2  2    -3.7034091604e-02
 3  2  3     3.7034091604e-02
 3  3  1     1.3086402957e-02
 3  3  2    -2.5556897893e-02
 3  3  3     2.5461215108e-02

    9
0.0000000000e+00 0.0000000000e+00 0.0000000000e+00
-3.2223894816e+00 0.0000000000e+00 -3.2223894816e+00
     1      1      1
 1  1  1     1.1422383946e-01
 1  1  2    -6.3875674484e-02
 1  1  3     7.7037138890e-02
 1  2  1    -3.5405817843e-02
 1  2  2     5.7259969697e-02
 1  2  3     3.2268996181e-02
 1  3  1     9.0855268206e-02
 1  3  2    -9.1440979876e-02
 1  3  3     9.0855268206e-02
 2  1  1    -3.5405817843e-02
 2  1  2     5.7259969697e-02
 2  1  3     3.2268996181e-02
 2  2  1     3.4038054092e-02
 2  2  2     3.5289527917e-02
 2  2  3     3.4038054092e-02
 2  3  1     3.2268996181e-02
 2  3  2     5.7259969697e-02
 2  3  3    -3.5405817843e-02
 3  1  1     9.0855268206e-02
 3  1  2    -9.1440979876e-02
 3  1  3     9.0855268206e-02
 3  2  1     3.2268996181e-02
 3  2  2     5.7259969697e-02
 3  2  3    -3.5405817843e-02
 3  3  1     7.7037138890e-02
 3  3  2    -6.3875674484e-02
 3  3  3     1.1422383946e-01

   10
0.0000000000e+00 0.0000000000e+00 0.0000000000e+00
-3.2223894816e+00 0.0000000000e+00 -3.2223894816e+00
     1      1      2
 1  1  1     1.5921609706e+00
 1  1  2    -3.2811094633e+00
 1  1  3     3.2811094633e+00
 1  2  1    -3.6818525921e+00
 1  2  2     3.6818525921e+00
 1  2  3    -4.6608776315e+00
 1  3  1     3.6818525921e+00
 1  3  2    -4.6608776315e+00
 1  3  3     3.6818525921e+00
 2  1  1    -3.6818525921e+00
 2  1  2     3.6818525921e+00
 2  1  3    -4.6608776315e+00
 2  2  1     3.2811094633e+00
 2  2  2    -1.5921609706e+00
 2  2  3     3.2811094633e+00
 2  3  1    -4.6608776315e+00
 2  3  2     3.6818525921e+00
 2  3  3    -3.6818525921e+00
 3  1  1     3.6818525921e+00
 3  1  2    -4.6608776315e+00
 3  1  3     3.6818525921e+00
 3  2  1    -4.6608776315e+00
 3  2  2     3.6818525921e+00
 3  2  3    -3.6818525921e+00
 3  3  1     3.2811094633e+00
 3  3  2    -3.2811094633e+00
 3  3  3     1.5921609706e+00

   11
0.0000000000e+00 0.0000000000e+00 0.0000000000e+00
-3.2223894816e+00 3.2223894816e+00 5.5511151231e-16
     1      1      1
 1  1  1     1.1422383946e-01
 1  1  2    -7.7037138890e-02
 1  1  3     6.3875674484e-02
 1  2  1    -9.0855268206e-02
 1  2  2     9.0855268206e-02
 1  2  3    -9.1440979876e-02
 1  3  1     3.5405817843e-02
 1  3  2     3.2268996181e-02
 1  3  3     5.7259969697e-02
 2  1  1    -9.0855268206e-02
 2  1  2     9.0855268206e-02
 2  1  3    -9.1440979876e-02
 2  2  1     7.7037138890e-02
 2  2  2    -1.1422383946e-01
 2  2  3     6.3875674484e-02
 2  3  1     3.2268996181e-02
 2  3  2     3.5405817843e-02
 2  3  3    -5.7259969697e-02
 3  1  1     3.5405817843e-02
 3  1  2     3.2268996181e-02
 3  1  3     5.7259969697e-02
 3  2  1     3.2268996181e-02
 3  2  2     3.5405817843e-02
 3  2  3    -5.7259969697e-02
 3  3  1     3.4038054092e-02
 3  3  2    -3.4038054092e-02
 3  3  3    -3.5289527917e-02

   12
0.0000000000e+00 0.0000000000e+00 0.0000000000e+00
-3.2223894816e+00 3.2223894816e+00 0.0000000000e+00
     1      1      2
 1  1  1    -2.5461215108e-02
 1  1  2     1.3086402957e-02
 1  1  3     2.5556897893e-02
 1  2  1     7.9302694473e-03
 1  2  2    -6.7276830057e-03
 1  2  3    -4.9109062611e-03
 1  3  1    -3.7034091604e-02
 1  3  2     1.2471886367e-02
 1  3  3     3.7034091604e-02
 2  1  1     7.9302694473e-03
 2  1  2    -6.7276830057e-03
 2  1  3    -4.9109062611e-03
 2  2  1    -1.0047471729e-02
 2  2  2     2.7667260469e-02
 2  2  3     1.0047471729e-02
 2  3  1    -4.9109062611e-03
 2  3  2     6.7276830057e-03
 2  3  3     7.9302694473e-03
 3  1  1    -3.7034091604e-02
 3  1  2     1.2471886367e-02
 3  1  3     3.7034091604e-02
 3  2  1    -4.9109062611e-03
 3  2  2     6.7276830057e-03
 3  2  3     7.9302694473e-03
 3  3  1    -2.5556897893e-02
 3  3  2     1.3086402957e-02
 3  3  3     2.5461215108e-02

   13
0.0000000000e+00 0.0000000000e+00 0.0000000000e+00
-3.2223894816e+00 -3.2223894816e+00 -6.4447789632e+00
     1      1      2
 1  1  1    -2.5461215108e-02
 1  1  2    -2.5556897893e-02
 1  1  3    -1.3086402957e-02
 1  2  1     3.7034091604e-02
 1  2  2     3.7034091604e-02
 1  2  3     1.2471886367e-02
 1  3  1    -7.9302694473e-03
 1  3  2    -4.9109062611e-03
 1  3  3    -6.7276830057e-03
 2  1  1     3.7034091604e-02
 2  1  2     3.7034091604e-02
 2  1  3     1.2471886367e-02
 2  2  1    -2.5556897893e-02
 2  2  2    -2.5461215108e-02
 2  2  3    -1.3086402957e-02
 2  3  1    -4.9109062611e-03
 2  3  2    -7.9302694473e-03
 2  3  3    -6.7276830057e-03
 3  1  1    -7.9302694473e-03
 3  1  2    -4.9109062611e-03
 3  1  3    -6.7276830057e-03
 3  2  1    -4.9109062611e-03
 3  2  2    -7.9302694473e-03
 3  2  3    -6.7276830057e-03
 3  3  1    -1.0047471729e-02
 3  3  2    -1.0047471729e-02
 3  3  3    -2.7667260469e-02

   14
0.0000000000e+00 0.0000000000e+00 0.0000000000e+00
3.2223894816e+00 3.2223894816e+00 0.0000000000e+00
     1      1      1
 1  1  1    -1.1422383946e-01
 1  1  2    -7.7037138890e-02
 1  1  3    -6.3875674484e-02
 1  2  1    -9.0855268206e-02
 1  2  2    -9.0855268206e-02
 1  2  3    -9.1440979876e-02
 1  3  1    -3.5405817843e-02
 1  3  2     3.2268996181e-02
 1  3  3    -5.7259969697e-02
 2  1  1    -9.0855268206e-02
 2  1  2    -9.0855268206e-02
 2  1  3    -9.1440979876e-02
 2  2  1    -7.7037138890e-02
 2  2  2    -1.1422383946e-01
 2  2  3    -6.3875674484e-02
 2  3  1     3.2268996181e-02
 2  3  2    -3.5405817843e-02
 2  3  3    -5.7259969697e-02
 3  1  1    -3.5405817843e-02
 3  1  2     3.2268996181e-02
 3  1  3    -5.7259969697e-02
 3  2  1     3.2268996181e-02
 3  2  2    -3.5405817843e-02
 3  2  3    -5.7259969697e-02
 3  3  1    -3.4038054092e-02
 3  3  2    -3.4038054092e-02
 3  3  3     3.5289527917e-02

   15
0.0000000000e+00 0.0000000000e+00 0.0000000000e+00
3.2223894816e+00 5.5511151231e-16 -3.2223894816e+00
     1      1      1
 1  1  1    -1.1422383946e-01
 1  1  2     6.3875674484e-02
 1  1  3     7.7037138890e-02
 1  2  1     3.5405817843e-02
 1  2  2    -5.7259969697e-02
 1  2  3     3.2268996181e-02
 1  3  1     9.0855268206e-02
 1  3  2    -9.1440979876e-02
 1  3  3    -9.0855268206e-02
 2  1  1     3.5405817843e-02
 2  1  2    -5.7259969697e-02
 2  1  3     3.2268996181e-02
 2  2  1    -3.4038054092e-02
 2  2  2    -3.5289527917e-02
 2  2  3     3.4038054092e-02
 2  3  1     3.2268996181e-02
 2  3  2     5.7259969697e-02
 2  3  3     3.5405817843e-02
 3  1  1     9.0855268206e-02
 3  1  2    -9.1440979876e-02
 3  1  3    -9.0855268206e-02
 3  2  1     3.2268996181e-02
 3  2  2     5.7259969697e-02
 3  2  3     3.5405817843e-02
 3  3  1    -7.7037138890e-02
 3  3  2     6.3875674484e-02
 3  3  3     1.1422383946e-01

   16
0.0000000000e+00 0.0000000000e+00 0.0000000000e+00
3.2223894816e+00 0.0000000000e+00 -3.2223894816e+00
     1      1      2
 1  1  1     2.7667260469e-02
 1  1  2     1.0047471729e-02
 1  1  3    -1.0047471729e-02
 1  2  1     6.7276830057e-03
 1  2  2     7.9302694473e-03
 1  2  3    -4.9109062611e-03
 1  3  1    -6.7276830057e-03
 1  3  2    -4.9109062611e-03
 1  3  3     7.9302694473e-03
 2  1  1     6.7276830057e-03
 2  1  2     7.9302694473e-03
 2  1  3    -4.9109062611e-03
 2  2  1     1.3086402957e-02
 2  2  2     2.5461215108e-02
 2  2  3    -2.5556897893e-02
 2  3  1     1.2471886367e-02
 2  3  2     3.7034091604e-02
 2  3  3    -3.7034091604e-02
 3  1  1    -6.7276830057e-03
 3  1  2    -4.9109062611e-03
 3  1  3     7.9302694473e-03
 3  2  1     1.2471886367e-02
 3  2  2     3.7034091604e-02
 3  2  3    -3.7034091604e-02
 3  3  1     1.3086402957e-02
 3  3  2     2.5556897893e-02
 3  3  3    -2.5461215108e-02

   17
0.0000000000e+00 0.0000000000e+00 0.0000000000e+00
6.4447789632e+00 5.5511151231e-16 5.5511151231e-16
     1      1      1
 1  1  1    -7.4099584192e-03
 1  1  2     0.0000000000e+00
 1  1  3     0.0000000000e+00
 1  2  1     0.0000000000e+00
 1  2  2     3.9803265089e-03
 1  2  3    -2.9672186440e-03
 1  3  1     0.0000000000e+00
 1  3  2    -2.9672186440e-03
 1  3  3     3.9803265089e-03
 2  1  1     0.0000000000e+00
 2  1  2     3.9803265089e-03
 2  1  3    -2.9672186440e-03
 2  2  1    -6.0297028371e-03
 2  2  2     0.0000000000e+00
 2  2  3     0.0000000000e+00
 2  3  1     2.6137276274e-03
 2  3  2     0.0000000000e+00
 2  3  3     0.0000000000e+00
 3  1  1     0.0000000000e+00
 3  1  2    -2.9672186440e-03
 3  1  3     3.9803265089e-03
 3  2  1     2.6137276274e-03
 3  2  2     0.0000000000e+00
 3  2  3     0.0000000000e+00
 3  3  1    -6.0297028371e-03
 3  3  2     0.0000000000e+00
 3  3  3     0.0000000000e+00

   18
0.0000000000e+00 0.0000000000e+00 0.0000000000e+00
5.5511151231e-16 3.2223894816e+00 -3.2223894816e+00
     1      1      1
 1  1  1    -3.5289527917e-02
 1  1  2    -3.4038054092e-02
 1  1  3     3.4038054092e-02
 1  2  1    -5.7259969697e-02
 1  2  2     3.5405817843e-02
 1  2  3     3.2268996181e-02
 1  3  1     5.7259969697e-02
 1  3  2     3.2268996181e-02
 1  3  3     3.5405817843e-02
 2  1  1    -5.7259969697e-02
 2  1  2     3.5405817843e-02
 2  1  3     3.2268996181e-02
 2  2  1     6.3875674484e-02
 2  2  2    -1.1422383946e-01
 2  2  3     7.7037138890e-02
 2  3  1    -9.1440979876e-02
 2  3  2     9.0855268206e-02
 2  3  3    -9.0855268206e-02
 3  1  1     5.7259969697e-02
 3  1  2     3.2268996181e-02
 3  1  3     3.5405817843e-02
 3  2  1    -9.1440979876e-02
 3  2  2     9.0855268206e-02
 3  2  3    -9.0855268206e-02
 3  3  1     6.3875674484e-02
 3  3  2    -7.7037138890e-02
 3  3  3     1.1422383946e-01

   19
0.0000000000e+00 0.0000000000e+00 0.0000000000e+00
0.0000000000e+00 3.2223894816e+00 -3.2223894816e+00
     1      1      2
 1  1  1     2.5461215108e-02
 1  1  2     1.3086402957e-02
 1  1  3    -2.5556897893e-02
 1  2  1     7.9302694473e-03
 1  2  2     6.7276830057e-03
 1  2  3    -4.9109062611e-03
 1  3  1     3.7034091604e-02
 1  3  2     1.2471886367e-02
 1  3  3    -3.7034091604e-02
 2  1  1     7.9302694473e-03
 2  1  2     6.7276830057e-03
 2  1  3    -4.9109062611e-03
 2  2  1     1.0047471729e-02
 2  2  2     2.7667260469e-02
 2  2  3    -1.0047471729e-02
 2  3  1    -4.9109062611e-03
 2  3  2    -6.7276830057e-03
 2  3  3     7.9302694473e-03
 3  1  1     3.7034091604e-02
 3  1  2     1.2471886367e-02
 3  1  3    -3.7034091604e-02
 3  2  1    -4.9109062611e-03
 3  2  2    -6.7276830057e-03
 3  2  3     7.9302694473e-03
 3  3  1     2.5556897893e-02
 3  3  2     1.3086402957e-02
 3  3  3    -2.5461215108e-02

   20
0.0000000000e+00 0.0000000000e+00 0.0000000000e+00
5.5511151231e-16 6.4447789632e+00 5.5511151231e-16
     1      1      1
 1  1  1     0.0000000000e+00
 1  1  2    -6.0297028371e-03
 1  1  3     0.0000000000e+00
 1  2  1     3.9803265089e-03
 1  2  2     0.0000000000e+00
 1  2  3    -2.9672186440e-03
 1  3  1     0.0000000000e+00
 1  3  2     2.6137276274e-03
 1  3  3     0.0000000000e+00
 2  1  1     3.9803265089e-03
 2  1  2     0.0000000000e+00
 2  1  3    -2.9672186440e-03
 2  2  1     0.0000000000e+00
 2  2  2    -7.4099584192e-03
 2  2  3     0.0000000000e+00
 2  3  1    -2.9672186440e-03
 2  3  2     0.0000000000e+00
 2  3  3     3.9803265089e-03
 3  1  1     0.0000000000e+00
 3  1  2     2.6137276274e-03
 3  1  3     0.0000000000e+00
 3  2  1    -2.9672186440e-03
 3  2  2     0.0000000000e+00
 3  2  3     3.9803265089e-03
 3  3  1     0.0000000000e+00
 3  3  2    -6.0297028371e-03
 3  3  3     0.0000000000e+00

   21
0.0000000000e+00 0.0000000000e+00 0.0000000000e+00
5.5511151231e-16 5.5511151231e-16 -6.4447789632e+00
     1      1      1
 1  1  1     0.0000000000e+00
 1  1  2     0.0000000000e+00
 1  1  3     6.0297028371e-03
 1  2  1     0.0000000000e+00
 1  2  2     0.0000000000e+00
 1  2  3     2.6137276274e-03
 1  3  1    -3.9803265089e-03
 1  3  2    -2.9672186440e-03
 1  3  3     0.0000000000e+00
 2  1  1     0.0000000000e+00
 2  1  2     0.0000000000e+00
 2  1  3     2.6137276274e-03
 2  2  1     0.0000000000e+00
 2  2  2     0.0000000000e+00
 2  2  3     6.0297028371e-03
 2  3  1    -2.9672186440e-03
 2  3  2    -3.9803265089e-03
 2  3  3     0.0000000000e+00
 3  1  1    -3.9803265089e-03
 3  1  2    -2.9672186440e-03
 3  1  3     0.0000000000e+00
 3  2  1    -2.9672186440e-03
 3  2  2    -3.9803265089e-03
 3  2  3     0.0000000000e+00
 3  3  1     0.0000000000e+00
 3  3  2     0.0000000000e+00
 3  3  3     7.4099584192e-03

   22
0.0000000000e+00 0.0000000000e+00 0.0000000000e+00
0.0000000000e+00 0.0000000000e+00 -6.4447789632e+00
     1      1      2
 1  1  1     2.5461215108e-02
 1  1  2     2.5556897893e-02
 1  1  3    -1.3086402957e-02
 1  2  1    -3.7034091604e-02
 1  2  2    -3.7034091604e-02
 1  2  3     1.2471886367e-02
 1  3  1    -7.9302694473e-03
 1  3  2    -4.9109062611e-03
 1  3  3     6.7276830057e-03
 2  1  1    -3.7034091604e-02
 2  1  2    -3.7034091604e-02
 2  1  3     1.2471886367e-02
 2  2  1     2.5556897893e-02
 2  2  2     2.5461215108e-02
 2  2  3    -1.3086402957e-02
 2  3  1    -4.9109062611e-03
 2  3  2    -7.9302694473e-03
 2  3  3     6.7276830057e-03
 3  1  1    -7.9302694473e-03
 3  1  2    -4.9109062611e-03
 3  1  3     6.7276830057e-03
 3  2  1    -4.9109062611e-03
 3  2  2    -7.9302694473e-03
 3  2  3     6.7276830057e-03
 3  3  1     1.0047471729e-02
 3  3  2     1.0047471729e-02
 3  3  3    -2.7667260469e-02

   23
0.0000000000e+00 0.0000000000e+00 0.0000000000e+00
-3.2223894816e+00 -3.2223894816e+00 0.0000000000e+00
     1      1      1
 1  1  1     1.1422383946e-01
 1  1  2     7.7037138890e-02
 1  1  3    -6.3875674484e-02
 1  2  1     9.0855268206e-02
 1  2  2     9.0855268206e-02
 1  2  3    -9.1440979876e-02
 1  3  1    -3.5405817843e-02
 1  3  2     3.2268996181e-02
 1  3  3     5.7259969697e-02
 2  1  1     9.0855268206e-02
 2  1  2     9.0855268206e-02
 2  1  3    -9.1440979876e-02
 2  2  1     7.7037138890e-02
 2  2  2     1.1422383946e-01
 2  2  3    -6.3875674484e-02
 2  3  1     3.2268996181e-02
 2  3  2    -3.5405817843e-02
 2  3  3     5.7259969697e-02
 3  1  1    -3.5405817843e-02
 3  1  2     3.2268996181e-02
 3  1  3     5.7259969697e-02
 3  2  1     3.2268996181e-02
 3  2  2    -3.5405817843e-02
 3  2  3     5.7259969697e-02
 3  3  1     3.4038054092e-02
 3  3  2     3.4038054092e-02
 3  3  3     3.5289527917e-02

   24
0.0000000000e+00 0.0000000000e+00 0.0000000000e+00
-3.2223894816e+00 -3.2223894816e+00 0.0000000000e+00
     1      1      2
 1  1  1     1.5921609706e+00
 1  1  2     3.2811094633e+00
 1  1  3    -3.2811094633e+00
 1  2  1     3.6818525921e+00
 1  2  2     3.6818525921e+00
 1  2  3    -4.6608776315e+00
 1  3  1    -3.6818525921e+00
 1  3  2    -4.6608776315e+00
 1  3  3     3.6818525921e+00
 2  1  1     3.6818525921e+00
 2  1  2     3.6818525921e+00
 2  1  3    -4.6608776315e+00
 2  2  1     3.2811094633e+00
 2  2  2     1.5921609706e+00
 2  2  3    -3.2811094633e+00
 2  3  1    -4.6608776315e+00
 2  3  2    -3.6818525921e+00
 2  3  3     3.6818525921e+00
 3  1  1    -3.6818525921e+00
 3  1  2    -4.6608776315e+00
 3  1  3     3.6818525921e+00
 3  2  1    -4.6608776315e+00
 3  2  2    -3.6818525921e+00
 3  2  3     3.6818525921e+00
 3  3  1     3.2811094633e+00
 3  3  2     3.2811094633e+00
 3  3  3    -1.5921609706e+00

   25
0.0000000000e+00 0.0000000000e+00 0.0000000000e+00
-3.2223894816e+00 5.5511151231e-16 3.2223894816e+00
     1      1      1
 1  1  1     1.1422383946e-01
 1  1  2     6.3875674484e-02
 1  1  3    -7.7037138890e-02
 1  2  1     3.5405817843e-02
 1  2  2     5.7259969697e-02
 1  2  3     3.2268996181e-02
 1  3  1    -9.0855268206e-02
 1  3  2    -9.1440979876e-02
 1  3  3     9.0855268206e-02
 2  1  1     3.5405817843e-02
 2  1  2     5.7259969697e-02
 2  1  3     3.2268996181e-02
 2  2  1     3.4038054092e-02
 2  2  2    -3.5289527917e-02
 2  2  3    -3.4038054092e-02
 2  3  1     3.2268996181e-02
 2  3  2    -5.7259969697e-02
 2  3  3     3.5405817843e-02
 3  1  1    -9.0855268206e-02
 3  1  2    -9.1440979876e-02
 3  1  3     9.0855268206e-02
 3  2  1     3.2268996181e-02
 3  2  2    -5.7259969697e-02
 3  2  3     3.5405817843e-02
 3  3  1     7.7037138890e-02
 3  3  2     6.3875674484e-02
 3  3  3    -1.1422383946e-01

   26
0.0000000000e+00 0.0000000000e+00 0.0000000000e+00
-3.2223894816e+00 0.0000000000e+00 3.2223894816e+00
     1      1      2
 1  1  1    -2.5461215108e-02
 1  1  2     2.5556897893e-02
 1  1  3     1.3086402957e-02
 1  2  1    -3.7034091604e-02
 1  2  2     3.7034091604e-02
 1  2  3     1.2471886367e-02
 1  3  1     7.9302694473e-03
 1  3  2    -4.9109062611e-03
 1  3  3    -6.7276830057e-03
 2  1  1    -3.7034091604e-02
 2  1  2     3.7034091604e-02
 2  1  3     1.2471886367e-02
 2  2  1    -2.5556897893e-02
 2  2  2     2.5461215108e-02
 2  2  3     1.3086402957e-02
 2  3  1    -4.9109062611e-03
 2  3  2     7.9302694473e-03
 2  3  3     6.7276830057e-03
 3  1  1     7.9302694473e-03
 3  1  2    -4.9109062611e-03
 3  1  3    -6.7276830057e-03
 3  2  1    -4.9109062611e-03
 3  2  2     7.9302694473e-03
 3  2  3     6.7276830057e-03
 3  3  1    -1.0047471729e-02
 3  3  2     1.0047471729e-02
 3  3  3     2.7667260469e-02

   27
0.0000000000e+00 0.0000000000e+00 0.0000000000e+00
-3.2223894816e+00 -6.4447789632e+00 -3.2223894816e+00
     1      1      2
 1  1  1    -2.5461215108e-02
 1  1  2    -1.3086402957e-02
 1  1  3    -2.5556897893e-02
 1  2  1    -7.9302694473e-03
 1  2  2    -6.7276830057e-03
 1  2  3    -4.9109062611e-03
 1  3  1     3.7034091604e-02
 1  3  2     1.2471886367e-02
 1  3  3     3.7034091604e-02
 2  1  1    -7.9302694473e-03
 2  1  2    -6.7276830057e-03
 2  1  3    -4.9109062611e-03
 2  2  1    -1.0047471729e-02
 2  2  2    -2.7667260469e-02
 2  2  3    -1.0047471729e-02
 2  3  1    -4.9109062611e-03
 2  3  2    -6.7276830057e-03
 2  3  3    -7.9302694473e-03
 3  1  1     3.7034091604e-02
 3  1  2     1.2471886367e-02
 3  1  3     3.7034091604e-02
 3  2  1    -4.9109062611e-03
 3  2  2    -6.7276830057e-03
 3  2  3    -7.9302694473e-03
 3  3  1    -2.5556897893e-02
 3  3  2    -1.3086402957e-02
 3  3  3    -2.5461215108e-02

   28
0.0000000000e+00 0.0000000000e+00 0.0000000000e+00
5.5511151231e-16 -3.2223894816e+00 3.2223894816e+00
     1      1      1
 1  1  1    -3.5289527917e-02
 1  1  2     3.4038054092e-02
 1  1  3    -3.4038054092e-02
 1  2  1     5.7259969697e-02
 1  2  2     3.5405817843e-02
 1  2  3     3.2268996181e-02
 1  3  1    -5.7259969697e-02
 1  3  2     3.2268996181e-02
 1  3  3     3.5405817843e-02
 2  1  1     5.7259969697e-02
 2  1  2     3.5405817843e-02
 2  1  3     3.2268996181e-02
 2  2  1     6.3875674484e-02
 2  2  2     1.1422383946e-01
 2  2  3    -7.7037138890e-02
 2  3  1    -9.1440979876e-02
 2  3  2    -9.0855268206e-02
 2  3  3     9.0855268206e-02
 3  1  1    -5.7259969697e-02
 3  1  2     3.2268996181e-02
 3  1  3     3.5405817843e-02
 3  2  1    -9.1440979876e-02
 3  2  2    -9.0855268206e-02
 3  2  3     9.0855268206e-02
 3  3  1     6.3875674484e-02
 3  3  2     7.7037138890e-02
 3  3  3    -1.1422383946e-01

   29
0.0000000000e+00 0.0000000000e+00 0.0000000000e+00
0.0000000000e+00 -3.2223894816e+00 3.2223894816e+00
     1      1      2
 1  1  1     2.5461215108e-02
 1  1  2    -2.5556897893e-02
 1  1  3     1.3086402957e-02
 1  2  1     3.7034091604e-02
 1  2  2    -3.7034091604e-02
 1  2  3     1.2471886367e-02
 1  3  1     7.9302694473e-03
 1  3  2    -4.9109062611e-03
 1  3  3     6.7276830057e-03
 2  1  1     3.7034091604e-02
 2  1  2    -3.7034091604e-02
 2  1  3     1.2471886367e-02
 2  2  1     2.5556897893e-02
 2  2  2    -2.5461215108e-02
 2  2  3     1.3086402957e-02
 2  3  1    -4.9109062611e-03
 2  3  2     7.9302694473e-03
 2  3  3    -6.7276830057e-03
 3  1  1     7.9302694473e-03
 3  1  2    -4.9109062611e-03
 3  1  3     6.7276830057e-03
 3  2  1    -4.9109062611e-03
 3  2  2     7.9302694473e-03
 3  2  3    -6.7276830057e-03
 3  3  1     1.0047471729e-02
 3  3  2    -1.0047471729e-02
 3  3  3     2.7667260469e-02

   30
0.0000000000e+00 0.0000000000e+00 0.0000000000e+00
5.5511151231e-16 5.5511151231e-16 6.4447789632e+00
     1      1      1
 1  1  1     0.0000000000e+00
 1  1  2     0.0000000000e+00
 1  1  3    -6.0297028371e-03
 1  2  1     0.0000000000e+00
 1  2  2     0.0000000000e+00
 1  2  3     2.6137276274e-03
 1  3  1     3.9803265089e-03
 1  3  2    -2.9672186440e-03
 1  3  3     0.0000000000e+00
 2  1  1     0.0000000000e+00
 2  1  2     0.0000000000e+00
 2  1  3     2.6137276274e-03
 2  2  1     0.0000000000e+00
 2  2  2     0.0000000000e+00
 2  2  3    -6.0297028371e-03
 2  3  1    -2.9672186440e-03
 2  3  2     3.9803265089e-03
 2  3  3     0.0000000000e+00
 3  1  1     3.9803265089e-03
 3  1  2    -2.9672186440e-03
 3  1  3     0.0000000000e+00
 3  2  1    -2.9672186440e-03
 3  2  2     3.9803265089e-03
 3  2  3     0.0000000000e+00
 3  3  1     0.0000000000e+00
 3  3  2     0.0000000000e+00
 3  3  3    -7.4099584192e-03

   31
0.0000000000e+00 0.0000000000e+00 0.0000000000e+00
5.5511151231e-16 -6.4447789632e+00 5.5511151231e-16
     1      1      1
 1  1  1     0.0000000000e+00
 1  1  2     6.0297028371e-03
 1  1  3     0.0000000000e+00
 1  2  1    -3.9803265089e-03
 1  2  2     0.0000000000e+00
 1  2  3    -2.9672186440e-03
 1  3  1     0.0000000000e+00
 1  3  2     2.6137276274e-03
 1  3  3     0.0000000000e+00
 2  1  1    -3.9803265089e-03
 2  1  2     0.0000000000e+00
 2  1  3    -2.9672186440e-03
 2  2  1     0.0000000000e+00
 2  2  2     7.4099584192e-03
 2  2  3     0.0000000000e+00
 2  3  1    -2.9672186440e-03
 2  3  2     0.0000000000e+00
 2  3  3    -3.9803265089e-03
 3  1  1     0.0000000000e+00
 3  1  2     2.6137276274e-03
 3  1  3     0.0000000000e+00
 3  2  1    -2.9672186440e-03
 3  2  2     0.0000000000e+00
 3  2  3    -3.9803265089e-03
 3  3  1     0.0000000000e+00
 3  3  2     6.0297028371e-03
 3  3  3     0.0000000000e+00

   32
0.0000000000e+00 0.0000000000e+00 0.0000000000e+00
0.0000000000e+00 -6.4447789632e+00 0.0000000000e+00
     1      1      2
 1  1  1     2.5461215108e-02
 1  1  2    -1.3086402957e-02
 1  1  3     2.5556897893e-02
 1  2  1    -7.9302694473e-03
 1  2  2     6.7276830057e-03
 1  2  3    -4.9109062611e-03
 1  3  1    -3.7034091604e-02
 1  3  2     1.2471886367e-02
 1  3  3    -3.7034091604e-02
 2  1  1    -7.9302694473e-03
 2  1  2     6.7276830057e-03
 2  1  3    -4.9109062611e-03
 2  2  1     1.0047471729e-02
 2  2  2    -2.7667260469e-02
 2  2  3     1.0047471729e-02
 2  3  1    -4.9109062611e-03
 2  3  2     6.7276830057e-03
 2  3  3    -7.9302694473e-03
 3  1  1    -3.7034091604e-02
 3  1  2     1.2471886367e-02
 3  1  3    -3.7034091604e-02
 3  2  1    -4.9109062611e-03
 3  2  2     6.7276830057e-03