  734

    1
0.0000000000e+00 0.0000000000e+00 0.0000000000e+00
0.0000000000e+00 0.0000000000e+00 0.0000000000e+00
     1      1      1
 1  1  1     0.0000000000e+00
 1  1  2    -1.6232579028e+02
 1  1  3     0.0000000000e+00
 1  2  1    -1.6232579028e+02
 1  2  2     0.0000000000e+00
 1  2  3     0.0000000000e+00
 1  3  1     0.0000000000e+00
 1  3  2     0.0000000000e+00
 1  3  3     0.0000000000e+00
 2  1  1    -1.6232579028e+02
 2  1  2     0.0000000000e+00
 2  1  3     0.0000000000e+00
 2  2  1     0.0000000000e+00
 2  2  2     1.6232579028e+02
 2  2  3     0.0000000000e+00
 2  3  1     0.0000000000e+00
 2  3  2     0.0000000000e+00
 2  3  3     0.0000000000e+00
 3  1  1     0.0000000000e+00
 3  1  2     0.0000000000e+00
 3  1  3     0.0000000000e+00
 3  2  1     0.0000000000e+00
 3  2  2     0.0000000000e+00
 3  2  3     0.0000000000e+00
 3  3  1     0.0000000000e+00
 3  3  2     0.0000000000e+00
 3  3  3     0.0000000000e+00

    2
0.0000000000e+00 0.0000000000e+00 0.0000000000e+00
0.0000000000e+00 0.0000000000e+00 0.0000000000e+00
     1      1      2
 1  1  1    -1.1175770958e+02
 1  1  2     7.5787082469e+01
 1  1  3     0.0000000000e+00
 1  2  1     7.4477796792e+01
 1  2  2    -3.6496653423e+01
 1  2  3     0.0000000000e+00
 1  3  1     0.0000000000e+00
 1  3  2     0.0000000000e+00
 1  3  3     1.2440844185e+01
 2  1  1     7.4477796792e+01
 2  1  2    -3.6496653423e+01
 2  1  3     0.0000000000e+00
 2  2  1    -3.8764402737e+01
 2  2  2     1.1116899598e+01
 2  2  3     0.0000000000e+00
 2  3  1     0.0000000000e+00
 2  3  2     0.0000000000e+00
 2  3  3    -7.1827247389e+00
 3  1  1     0.0000000000e+00
 3  1  2     0.0000000000e+00
 3  1  3     1.2440844185e+01
 3  2  1     0.0000000000e+00
 3  2  2     0.0000000000e+00
 3  2  3    -7.1827247389e+00
 3  3  1     1.0836626739e+01
 3  3  2    -6.2565293651e+00
 3  3  3     0.0000000000e+00

    3
0.0000000000e+00 0.0000000000e+00 0.0000000000e+00
1.2340391868e+00 -2.1374185701e+00 0.0000000000e+00
     1      1      1
 1  1  1    -2.7554201699e-01
 1  1  2     3.0330276895e+00
 1  1  3     0.0000000000e+00
 1  2  1     1.2912872563e+00
 1  2  2    -6.9043058538e+00
 1  2  3     0.0000000000e+00
 1  3  1     0.0000000000e+00
 1  3  2     0.0000000000e+00
 1  3  3     4.6628927369e-01
 2  1  1     1.2912872563e+00
 2  1  2    -6.9043058538e+00
 2  1  3     0.0000000000e+00
 2  2  1    -4.0604861883e+00
 2  2  2     3.5934166215e+00
 2  2  3     0.0000000000e+00
 2  3  1     0.0000000000e+00
 2  3  2     0.0000000000e+00
 2  3  3    -2.6231556818e+00
 3  1  1     0.0000000000e+00
 3  1  2     0.0000000000e+00
 3  1  3     4.6628927369e-01
 3  2  1     0.0000000000e+00
 3  2  2     0.0000000000e+00
 3  2  3    -2.6231556818e+00
 3  3  1    -7.2463874279e-01
 3  3  2     8.4341564655e-03
 3  3  3     0.0000000000e+00

    4
0.0000000000e+00 0.0000000000e+00 0.0000000000e+00
1.2340391868e+00 -2.1374185701e+00 0.0000000000e+00
     1      1      2
 1  1  1     7.7979768744e-01
 1  1  2    -1.2756391473e-01
 1  1  3     0.0000000000e+00
 1  2  1    -9.4439666627e-01
 1  2  2     4.5850102659e-02
 1  2  3     0.0000000000e+00
 1  3  1     0.0000000000e+00
 1  3  2     0.0000000000e+00
 1  3  3    -2.3995948046e-01
 2  1  1    -9.4439666627e-01
 2  1  2     4.5850102659e-02
 2  1  3     0.0000000000e+00
 2  2  1    -5.7425044328e-01
 2  2  2     1.1809192166e+00
 2  2  3     0.0000000000e+00
 2  3  1     0.0000000000e+00
 2  3  2     0.0000000000e+00
 2  3  3    -5.8369006191e-02
 3  1  1     0.0000000000e+00
 3  1  2     0.0000000000e+00
 3  1  3    -2.3995948046e-01
 3  2  1     0.0000000000e+00
 3  2  2     0.0000000000e+00
 3  2  3    -5.8369006191e-02
 3  3  1    -1.7315128120e-01
 3  3  2     6.9506262972e-02
 3  3  3     0.0000000000e+00

    5
0.0000000000e+00 0.0000000000e+00 0.0000000000e+00
-2.4680783737e+00 4.2748371403e+00 0.0000000000e+00
     1      1      2
 1  1  1     2.4699375296e-01
 1  1  2    -1.3592058457e+00
 1  1  3     0.0000000000e+00
 1  2  1    -4.1376664421e-01
 1  2  2     3.7066467928e-01
 1  2  3     0.0000000000e+00
 1  3  1     0.0000000000e+00
 1  3  2     0.0000000000e+00
 1  3  3    -1.7052878238e-01
 2  1  1    -4.1376664421e-01
 2  1  2     3.7066467928e-01
 2  1  3     0.0000000000e+00
 2  2  1     7.6801231979e-01
 2  2  2     1.0105373298e+00
 2  2  3     0.0000000000e+00
 2  3  1     0.0000000000e+00
 2  3  2     0.0000000000e+00
 2  3  3    -1.7862650286e-01
 3  1  1     0.0000000000e+00
 3  1  2     0.0000000000e+00
 3  1  3    -1.7052878238e-01
 3  2  1     0.0000000000e+00
 3  2  2     0.0000000000e+00
 3  2  3    -1.7862650286e-01
 3  3  1    -2.6381451145e-02
 3  3  2    -1.8470653970e-01
 3  3  3     0.0000000000e+00

    6
0.0000000000e+00 0.0000000000e+00 0.0000000000e+00
-1.2340391868e+00 2.1374185701e+00 0.0000000000e+00
     1      1      1
 1  1  1    -3.1855483615e+00
 1  1  2    -4.6556185928e-01
 1  1  3     0.0000000000e+00
 1  2  1    -2.0575117168e+00
 1  2  2     3.8259020742e+00
 1  2  3     0.0000000000e+00
 1  3  1     0.0000000000e+00
 1  3  2     0.0000000000e+00
 1  3  3    -2.0385748217e+00
 2  1  1    -2.0575117168e+00
 2  1  2     3.8259020742e+00
 2  1  3     0.0000000000e+00
 2  2  1     6.7562033689e+00
 2  2  2    -6.6027708735e+00
 2  2  3     0.0000000000e+00
 2  3  1     0.0000000000e+00
 2  3  2     0.0000000000e+00
 2  3  3     1.7153961974e+00
 3  1  1     0.0000000000e+00
 3  1  2     0.0000000000e+00
 3  1  3    -2.0385748217e+00
 3  2  1     0.0000000000e+00
 3  2  2     0.0000000000e+00
 3  2  3     1.7153961974e+00
 3  3  1    -3.5501517764e-01
 3  3  2    -6.3177263806e-01
 3  3  3     0.0000000000e+00

    7
0.0000000000e+00 0.0000000000e+00 0.0000000000e+00
-1.2340391868e+00 2.1374185701e+00 0.0000000000e+00
     1      1      2
 1  1  1     0.0000000000e+00
 1  1  2     8.6451674030e+00
 1  1  3     0.0000000000e+00
 1  2  1     1.1263738757e+01
 1  2  2     0.0000000000e+00
 1  2  3     0.0000000000e+00
 1  3  1     0.0000000000e+00
 1  3  2     0.0000000000e+00
 1  3  3     0.0000000000e+00
 2  1  1     1.1263738757e+01
 2  1  2     0.0000000000e+00
 2  1  3     0.0000000000e+00
 2  2  1     0.0000000000e+00
 2  2  2    -1.8245313154e+02
 2  2  3     0.0000000000e+00
 2  3  1     0.0000000000e+00
 2  3  2     0.0000000000e+00
 2  3  3     1.4365449478e+01
 3  1  1     0.0000000000e+00
 3  1  2     0.0000000000e+00
 3  1  3     0.0000000000e+00
 3  2  1     0.0000000000e+00
 3  2  2     0.0000000000e+00
 3  2  3     1.4365449478e+01
 3  3  1     0.0000000000e+00
 3  3  2     1.2513058730e+01
 3  3  3     0.0000000000e+00

    8
0.0000000000e+00 0.0000000000e+00 0.0000000000e+00
1.2340391868e+00 2.1374185701e+00 0.0000000000e+00
     1      1      1
 1  1  1     3.1855483615e+00
 1  1  2    -4.6556185928e-01
 1  1  3     0.0000000000e+00
 1  2  1    -2.0575117168e+00
 1  2  2    -3.8259020742e+00
 1  2  3     0.0000000000e+00
 1  3  1     0.0000000000e+00
 1  3  2     0.0000000000e+00
 1  3  3     2.0385748217e+00
 2  1  1    -2.0575117168e+00
 2  1  2    -3.8259020742e+00
 2  1  3     0.0000000000e+00
 2  2  1    -6.7562033689e+00
 2  2  2    -6.6027708735e+00
 2  2  3     0.0000000000e+00
 2  3  1     0.0000000000e+00
 2  3  2     0.0000000000e+00
 2  3  3     1.7153961974e+00
 3  1  1     0.0000000000e+00
 3  1  2     0.0000000000e+00
 3  1  3     2.0385748217e+00
 3  2  1     0.0000000000e+00
 3  2  2     0.0000000000e+00
 3  2  3     1.7153961974e+00
 3  3  1     3.5501517764e-01
 3  3  2    -6.3177263806e-01
 3  3  3     0.0000000000e+00

    9
0.0000000000e+00 0.0000000000e+00 0.0000000000e+00
1.2340391868e+00 2.1374185701e+00 0.0000000000e+00
     1      1      2
 1  1  1    -2.3641334567e+00
 1  1  2     7.5290147387e-01
 1  1  3     0.0000000000e+00
 1  2  1    -1.4149851491e+00
 1  2  2    -2.0396744109e+00
 1  2  3     0.0000000000e+00
 1  3  1     0.0000000000e+00
 1  3  2     0.0000000000e+00
 1  3  3     1.2529839962e-01
 2  1  1    -1.4149851491e+00
 2  1  2    -2.0396744109e+00
 2  1  3     0.0000000000e+00
 2  2  1     1.7152153652e+00
 2  2  2    -1.1275545087e+00
 2  2  3     0.0000000000e+00
 2  3  1     0.0000000000e+00
 2  3  2     0.0000000000e+00
 2  3  3     7.2341064747e-02
 3  1  1     0.0000000000e+00
 3  1  2     0.0000000000e+00
 3  1  3     1.2529839962e-01
 3  2  1     0.0000000000e+00
 3  2  2     0.0000000000e+00
 3  2  3     7.2341064747e-02
 3  3  1    -1.9779163599e-01
 3  3  2    -1.1419505428e-01
 3  3  3     0.0000000000e+00

   10
0.0000000000e+00 0.0000000000e+00 0.0000000000e+00
2.4680783737e+00 0.0000000000e+00 0.0000000000e+00
     1      1      1
 1  1  1    -1.0285160565e+01
 1  1  2    -1.0508266447e+00
 1  1  3     0.0000000000e+00
 1  2  1     2.2828636460e+00
 1  2  2     2.4649589811e+00
 1  2  3     0.0000000000e+00
 1  3  1     0.0000000000e+00
 1  3  2     0.0000000000e+00
 1  3  3     2.5048640954e+00
 2  1  1     2.2828636460e+00
 2  1  2     2.4649589811e+00
 2  1  3     0.0000000000e+00
 2  2  1     2.3784773519e+00
 2  2  2     1.4927150665e+00
 2  2  3     0.0000000000e+00
 2  3  1     0.0000000000e+00
 2  3  2     0.0000000000e+00
 2  3  3     9.0775948437e-01
 3  1  1     0.0000000000e+00
 3  1  2     0.0000000000e+00
 3  1  3     2.5048640954e+00
 3  2  1     0.0000000000e+00
 3  2  2     0.0000000000e+00
 3  2  3     9.0775948437e-01
 3  3  1    -3.6962356515e-01
 3  3  2     6.2333848159e-01
 3  3  3     0.0000000000e+00

   11
0.0000000000e+00 0.0000000000e+00 0.0000000000e+00
2.4680783737e+00 -2.7755575616e-16 0.0000000000e+00
     1      1      2
 1  1  1    -4.1395700957e-01
 1  1  2    -9.1118758754e-01
 1  1  3     0.0000000000e+00
 1  2  1    -1.0397940375e+00
 1  2  2     6.2194636742e-01
 1  2  3     0.0000000000e+00
 1  3  1     0.0000000000e+00
 1  3  2     0.0000000000e+00
 1  3  3    -6.9430698073e-02
 2  1  1    -1.0397940375e+00
 2  1  2     6.2194636742e-01
 2  1  3     0.0000000000e+00
 2  2  1    -3.9550181902e-01
 2  2  2     2.0650080146e-01
 2  2  3     0.0000000000e+00
 2  3  1     0.0000000000e+00
 2  3  2     0.0000000000e+00
 2  3  3     2.3699550905e-01
 3  1  1     0.0000000000e+00
 3  1  2     0.0000000000e+00
 3  1  3    -6.9430698073e-02
 3  2  1     0.0000000000e+00
 3  2  2     0.0000000000e+00
 3  2  3     2.3699550905e-01
 3  3  1    -1.4676983006e-01
 3  3  2     1.1520027673e-01
 3  3  3     0.0000000000e+00

   12
0.0000000000e+00 0.0000000000e+00 0.0000000000e+00
3.7021175605e+00 -2.1374185701e+00 0.0000000000e+00
     1      1      1
 1  1  1    -3.9962661176e-01
 1  1  2     5.2355294682e-01
 1  1  3     0.0000000000e+00
 1  2  1     9.4202238580e-01
 1  2  2    -3.7481231383e-01
 1  2  3     0.0000000000e+00
 1  3  1     0.0000000000e+00
 1  3  2     0.0000000000e+00
 1  3  3    -1.3980091369e-02
 2  1  1     9.4202238580e-01
 2  1  2    -3.7481231383e-01
 2  1  3     0.0000000000e+00
 2  2  1     3.4999801591e-01
 2  2  2    -4.9489986364e-01
 2  2  3     0.0000000000e+00
 2  3  1     0.0000000000e+00
 2  3  2     0.0000000000e+00
 2  3  3     8.0714095151e-03
 3  1  1     0.0000000000e+00
 3  1  2     0.0000000000e+00
 3  1  3    -1.3980091369e-02
 3  2  1     0.0000000000e+00
 3  2  2     0.0000000000e+00
 3  2  3     8.0714095151e-03
 3  3  1    -2.3535709980e-02
 3  3  2     1.3588348493e-02
 3  3  3     0.0000000000e+00

   13
0.0000000000e+00 0.0000000000e+00 0.0000000000e+00
0.0000000000e+00 4.2748371403e+00 0.0000000000e+00
     1      1      1
 1  1  1     0.0000000000e+00
 1  1  2     1.1297672929e+00
 1  1  3     0.0000000000e+00
 1  2  1     2.9282841494e-01
 1  2  2     0.0000000000e+00
 1  2  3     0.0000000000e+00
 1  3  1     0.0000000000e+00
 1  3  2     0.0000000000e+00
 1  3  3     0.0000000000e+00
 2  1  1     2.9282841494e-01
 2  1  2     0.0000000000e+00
 2  1  3     0.0000000000e+00
 2  2  1     0.0000000000e+00
 2  2  2    -1.1870734593e+00
 2  2  3     0.0000000000e+00
 2  3  1     0.0000000000e+00
 2  3  2     0.0000000000e+00
 2  3  3    -1.6142819030e-02
 3  1  1     0.0000000000e+00
 3  1  2     0.0000000000e+00
 3  1  3     0.0000000000e+00
 3  2  1     0.0000000000e+00
 3  2  2     0.0000000000e+00
 3  2  3    -1.6142819030e-02
 3  3  1     0.0000000000e+00
 3  3  2    -2.7176696985e-02
 3  3  3     0.0000000000e+00

   14
0.0000000000e+00 0.0000000000e+00 0.0000000000e+00
0.0000000000e+00 4.2748371403e+00 0.0000000000e+00
     1      1      2
 1  1  1    -2.4699375296e-01
 1  1  2    -1.3592058457e+00
 1  1  3     0.0000000000e+00
 1  2  1    -4.1376664421e-01
 1  2  2    -3.7066467928e-01
 1  2  3     0.0000000000e+00
 1  3  1     0.0000000000e+00
 1  3  2     0.0000000000e+00
 1  3  3     1.7052878238e-01
 2  1  1    -4.1376664421e-01
 2  1  2    -3.7066467928e-01
 2  1  3     0.0000000000e+00
 2  2  1    -7.6801231979e-01
 2  2  2     1.0105373298e+00
 2  2  3     0.0000000000e+00
 2  3  1     0.0000000000e+00
 2  3  2     0.0000000000e+00
 2  3  3    -1.7862650286e-01
 3  1  1     0.0000000000e+00
 3  1  2     0.0000000000e+00
 3  1  3     1.7052878238e-01
 3  2  1     0.0000000000e+00
 3  2  2     0.0000000000e+00
 3  2  3    -1.7862650286e-01
 3  3  1     2.6381451145e-02
 3  3  2    -1.8470653970e-01
 3  3  3     0.0000000000e+00

   15
0.0000000000e+00 0.0000000000e+00 0.0000000000e+00
3.7021175605e+00 2.1374185701e+00 0.0000000000e+00
     1      1      1
 1  1  1     2.0425672677e-01
 1  1  2     7.0760960324e-01
 1  1  3     0.0000000000e+00
 1  2  1     9.0733744451e-01
 1  2  2     1.8339849851e-01
 1  2  3     0.0000000000e+00
 1  3  1     0.0000000000e+00
 1  3  2     0.0000000000e+00
 1  3  3    -8.7553181739e-02
 2  1  1     9.0733744451e-01
 2  1  2     1.8339849851e-01
 2  1  3     0.0000000000e+00
 2  2  1    -1.6254027026e-01
 2  2  2    -6.8352459584e-01
 2  2  3     0.0000000000e+00
 2  3  1     0.0000000000e+00
 2  3  2     0.0000000000e+00
 2  3  3    -5.0548853046e-02
 3  1  1     0.0000000000e+00
 3  1  2     0.0000000000e+00
 3  1  3    -8.7553181739e-02
 3  2  1     0.0000000000e+00
 3  2  2     0.0000000000e+00
 3  2  3    -5.0548853046e-02
 3  3  1     2.4810743027e-01
 3  3  2     1.4324489165e-01
 3  3  3     0.0000000000e+00

   16
0.0000000000e+00 0.0000000000e+00 0.0000000000e+00
-4.9361567473e+00 -2.7755575616e-16 0.0000000000e+00
     1      1      2
 1  1  1     4.1395700957e-01
 1  1  2    -9.1118758754e-01
 1  1  3     0.0000000000e+00
 1  2  1    -1.0397940375e+00
 1  2  2    -6.2194636742e-01
 1  2  3     0.0000000000e+00
 1  3  1     0.0000000000e+00
 1  3  2     0.0000000000e+00
 1  3  3     6.9430698073e-02
 2  1  1    -1.0397940375e+00
 2  1  2    -6.2194636742e-01
 2  1  3     0.0000000000e+00
 2  2  1     3.9550181902e-01
 2  2  2     2.0650080146e-01
 2  2  3     0.0000000000e+00
 2  3  1     0.0000000000e+00
 2  3  2     0.0000000000e+00
 2  3  3     2.3699550905e-01
 3  1  1     0.0000000000e+00
 3  1  2     0.0000000000e+00
 3  1  3     6.9430698073e-02
 3  2  1     0.0000000000e+00
 3  2  2     0.0000000000e+00
 3  2  3     2.3699550905e-01
 3  3  1     1.4676983006e-01
 3  3  2     1.1520027673e-01
 3  3  3     0.0000000000e+00

   17
0.0000000000e+00 0.0000000000e+00 0.0000000000e+00
-3.7021175605e+00 -2.1374185701e+00 0.0000000000e+00
     1      1      1
 1  1  1     3.9962661176e-01
 1  1  2     5.2355294682e-01
 1  1  3     0.0000000000e+00
 1  2  1     9.4202238580e-01
 1  2  2     3.7481231383e-01
 1  2  3     0.0000000000e+00
 1  3  1     0.0000000000e+00
 1  3  2     0.0000000000e+00
 1  3  3     1.3980091369e-02
 2  1  1     9.4202238580e-01
 2  1  2     3.7481231383e-01
 2  1  3     0.0000000000e+00
 2  2  1    -3.4999801591e-01
 2  2  2    -4.9489986364e-01
 2  2  3     0.0000000000e+00
 2  3  1     0.0000000000e+00
 2  3  2     0.0000000000e+00
 2  3  3     8.0714095151e-03
 3  1  1     0.0000000000e+00
 3  1  2     0.0000000000e+00
 3  1  3     1.3980091369e-02
 3  2  1     0.0000000000e+00
 3  2  2     0.0000000000e+00
 3  2  3     8.0714095151e-03
 3  3  1     2.3535709980e-02
 3  3  2     1.3588348493e-02
 3  3  3     0.0000000000e+00

   18
0.0000000000e+00 0.0000000000e+00 0.0000000000e+00
-3.7021175605e+00 -2.1374185701e+00 0.0000000000e+00
     1      1      2
 1  1  1    -7.7979768744e-01
 1  1  2    -1.2756391473e-01
 1  1  3     0.0000000000e+00
 1  2  1    -9.4439666627e-01
 1  2  2    -4.5850102659e-02
 1  2  3     0.0000000000e+00
 1  3  1     0.0000000000e+00
 1  3  2     0.0000000000e+00
 1  3  3     2.3995948046e-01
 2  1  1    -9.4439666627e-01
 2  1  2    -4.5850102659e-02
 2  1  3     0.0000000000e+00
 2  2  1     5.7425044328e-01
 2  2  2     1.1809192166e+00
 2  2  3     0.0000000000e+00
 2  3  1     0.0000000000e+00
 2  3  2     0.0000000000e+00
 2  3  3    -5.8369006191e-02
 3  1  1     0.0000000000e+00
 3  1  2     0.0000000000e+00
 3  1  3     2.3995948046e-01
 3  2  1     0.0000000000e+00
 3  2  2     0.0000000000e+00
 3  2  3    -5.8369006191e-02
 3  3  1     1.7315128120e-01
 3  3  2     6.9506262972e-02
 3  3  3     0.0000000000e+00

   19
0.0000000000e+00 0.0000000000e+00 0.0000000000e+00
-1.2340391868e+00 -2.1374185701e+00 0.0000000000e+00
     1      1      1
 1  1  1     2.7554201699e-01
 1  1  2     3.0330276895e+00
 1  1  3     0.0000000000e+00
 1  2  1     1.2912872563e+00
 1  2  2     6.9043058538e+00
 1  2  3     0.0000000000e+00
 1  3  1     0.0000000000e+00
 1  3  2     0.0000000000e+00
 1  3  3    -4.6628927369e-01
 2  1  1     1.2912872563e+00
 2  1  2     6.9043058538e+00
 2  1  3     0.0000000000e+00
 2  2  1     4.0604861883e+00
 2  2  2     3.5934166215e+00
 2  2  3     0.0000000000e+00
 2  3  1     0.0000000000e+00
 2  3  2     0.0000000000e+00
 2  3  3    -2.6231556818e+00
 3  1  1     0.0000000000e+00
 3  1  2     0.0000000000e+00
 3  1  3    -4.6628927369e-01
 3  2  1     0.0000000000e+00
 3  2  2     0.0000000000e+00
 3  2  3    -2.6231556818e+00
 3  3  1     7.2463874279e-01
 3  3  2     8.4341564655e-03
 3  3  3     0.0000000000e+00

   20
0.0000000000e+00 0.0000000000e+00 0.0000000000e+00
-1.2340391868e+00 -2.1374185701e+00 0.0000000000e+00
     1      1      2
 1  1  1     0.0000000000e+00
 1  1  2    -2.2179386845e+00
 1  1  3     0.0000000000e+00
 1  2  1     2.1178345615e+00
 1  2  2     0.0000000000e+00
 1  2  3     0.0000000000e+00
 1  3  1     0.0000000000e+00
 1  3  2     0.0000000000e+00
 1  3  3     0.0000000000e+00
 2  1  1     2.1178345615e+00
 2  1  2     0.0000000000e+00
 2  1  3     0.0000000000e+00
 2  2  1     0.0000000000e+00
 2  2  2     2.9672447542e+00
 2  2  3     0.0000000000e+00
 2  3  1     0.0000000000e+00
 2  3  2     0.0000000000e+00
 2  3  3    -1.4468212949e-01
 3  1  1     0.0000000000e+00
 3  1  2     0.0000000000e+00
 3  1  3     0.0000000000e+00
 3  2  1     0.0000000000e+00
 3  2  2     0.0000000000e+00
 3  2  3    -1.4468212949e-01
 3  3  1     0.0000000000e+00
 3  3  2     2.2839010856e-01
 3  3  3     0.0000000000e+00

   21
0.0000000000e+00 0.0000000000e+00 0.0000000000e+00
0.0000000000e+00 -4.2748371403e+00 0.0000000000e+00
     1      1      1
 1  1  1     0.0000000000e+00
 1  1  2     9.8913760960e-01
 1  1  3     0.0000000000e+00
 1  2  1     5.8968192706e-01
 1  2  2     0.0000000000e+00
 1  2  3     0.0000000000e+00
 1  3  1     0.0000000000e+00
 1  3  2     0.0000000000e+00
 1  3  3     0.0000000000e+00
 2  1  1     5.8968192706e-01
 2  1  2     0.0000000000e+00
 2  1  3     0.0000000000e+00
 2  2  1     0.0000000000e+00
 2  2  2    -1.0373076244e+00
 2  2  3     0.0000000000e+00
 2  3  1     0.0000000000e+00
 2  3  2     0.0000000000e+00
 2  3  3     1.0109770609e-01
 3  1  1     0.0000000000e+00
 3  1  2     0.0000000000e+00
 3  1  3     0.0000000000e+00
 3  2  1     0.0000000000e+00
 3  2  2     0.0000000000e+00
 3  2  3     1.0109770609e-01
 3  3  1     0.0000000000e+00
 3  3  2    -2.8648978330e-01
 3  3  3     0.0000000000e+00

   22
0.0000000000e+00 0.0000000000e+00 0.0000000000e+00
-3.7021175605e+00 2.1374185701e+00 0.0000000000e+00
     1      1      1
 1  1  1    -2.0425672677e-01
 1  1  2     7.0760960324e-01
 1  1  3     0.0000000000e+00
 1  2  1     9.0733744451e-01
 1  2  2    -1.8339849851e-01
 1  2  3     0.0000000000e+00
 1  3  1     0.0000000000e+00
 1  3  2     0.0000000000e+00
 1  3  3     8.7553181739e-02
 2  1  1     9.0733744451e-01
 2  1  2    -1.8339849851e-01
 2  1  3     0.0000000000e+00
 2  2  1     1.6254027026e-01
 2  2  2    -6.8352459584e-01
 2  2  3     0.0000000000e+00
 2  3  1     0.0000000000e+00
 2  3  2     0.0000000000e+00
 2  3  3    -5.0548853046e-02
 3  1  1     0.0000000000e+00
 3  1  2     0.0000000000e+00
 3  1  3     8.7553181739e-02
 3  2  1     0.0000000000e+00
 3  2  2     0.0000000000e+00
 3  2  3    -5.0548853046e-02
 3  3  1    -2.4810743027e-01
 3  3  2     1.4324489165e-01
 3  3  3     0.0000000000e+00

   23
0.0000000000e+00 0.0000000000e+00 0.0000000000e+00
-3.7021175605e+00 2.1374185701e+00 0.0000000000e+00
     1      1      2
 1  1  1     2.3641334567e+00
 1  1  2     7.5290147387e-01
 1  1  3     0.0000000000e+00
 1  2  1    -1.4149851491e+00
 1  2  2     2.0396744109e+00
 1  2  3     0.0000000000e+00
 1  3  1     0.0000000000e+00
 1  3  2     0.0000000000e+00
 1  3  3    -1.2529839962e-01
 2  1  1    -1.4149851491e+00
 2  1  2     2.0396744109e+00
 2  1  3     0.0000000000e+00
 2  2  1    -1.7152153652e+00
 2  2  2    -1.1275545087e+00
 2  2  3     0.0000000000e+00
 2  3  1     0.0000000000e+00
 2  3  2     0.0000000000e+00
 2  3  3     7.2341064747e-02
 3  1  1     0.0000000000e+00
 3  1  2     0.0000000000e+00
 3  1  3    -1.2529839962e-01
 3  2  1     0.0000000000e+00
 3  2  2     0.0000000000e+00
 3  2  3     7.2341064747e-02
 3  3  1     1.9779163599e-01
 3  3  2    -1.1419505428e-01
 3  3  3     0.0000000000e+00

   24
0.0000000000e+00 0.0000000000e+00 0.0000000000e+00
-2.4680783737e+00 0.0000000000e+00 0.0000000000e+00
     1      1      1
 1  1  1     1.0285160565e+01
 1  1  2    -1.0508266447e+00
 1  1  3     0.0000000000e+00
 1  2  1     2.2828636460e+00
 1  2  2    -2.4649589811e+00
 1  2  3     0.0000000000e+00
 1  3  1     0.0000000000e+00
 1  3  2     0.0000000000e+00
 1  3  3    -2.5048640954e+00
 2  1  1     2.2828636460e+00
 2  1  2    -2.4649589811e+00
 2  1  3     0.0000000000e+00
 2  2  1    -2.3784773519e+00
 2  2  2     1.4927150665e+00
 2  2  3     0.0000000000e+00
 2  3  1     0.0000000000e+00
 2  3  2     0.0000000000e+00
 2  3  3     9.0775948437e-01
 3  1  1     0.0000000000e+00
 3  1  2     0.0000000000e+00
 3  1  3    -2.5048640954e+00
 3  2  1     0.0000000000e+00
 3  2  2     0.0000000000e+00
 3  2  3     9.0775948437e-01
 3  3  1     3.6962356515e-01
 3  3  2     6.2333848159e-01
 3  3  3     0.0000000000e+00

   25
0.0000000000e+00 0.0000000000e+00 0.0000000000e+00
-2.4680783737e+00 0.0000000000e+00 0.0000000000e+00
     1      1      2
 1  1  1     1.1175770958e+02
 1  1  2     7.5787082469e+01
 1  1  3     0.0000000000e+00
 1  2  1     7.4477796792e+01
 1  2  2     3.6496653423e+01
 1  2  3     0.0000000000e+00
 1  3  1     0.0000000000e+00
 1  3  2     0.0000000000e+00
 1  3  3    -1.2440844185e+01
 2  1  1     7.4477796792e+01
 2  1  2     3.6496653423e+01
 2  1  3     0.0000000000e+00
 2  2  1     3.8764402737e+01
 2  2  2     1.1116899598e+01
 2  2  3     0.0000000000e+00
 2  3  1     0.0000000000e+00
 2  3  2     0.0000000000e+00
 2  3  3    -7.1827247389e+00
 3  1  1     0.0000000000e+00
 3  1  2     0.0000000000e+00
 3  1  3    -1.2440844185e+01
 3  2  1     0.0000000000e+00
 3  2  2     0.0000000000e+00
 3  2  3    -7.1827247389e+00
 3  3  1    -1.0836626739e+01
 3  3  2    -6.2565293651e+00
 3  3  3     0.0000000000e+00

   26
0.0000000000e+00 0.0000000000e+00 0.0000000000e+00
0.0000000000e+00 0.0000000000e+00 0.0000000000e+00
     1      2      1
 1  1  1    -1.1175770958e+02
 1  1  2     7.4477796792e+01
 1  1  3     0.0000000000e+00
 1  2  1     7.5787082469e+01
 1  2  2    -3.6496653423e+01
 1  2  3     0.0000000000e+00
 1  3  1     0.0000000000e+00
 1  3  2     0.0000000000e+00
 1  3  3     1.2440844185e+01
 2  1  1     7.4477796792e+01
 2  1  2    -3.8764402737e+01
 2  1  3     0.0000000000e+00
 2  2  1    -3.6496653423e+01
 2  2  2     1.1116899598e+01
 2  2  3     0.0000000000e+00
 2  3  1     0.0000000000e+00
 2  3  2     0.0000000000e+00
 2  3  3    -7.1827247389e+00
 3  1  1     0.0000000000e+00
 3  1  2     0.0000000000e+00
 3  1  3     1.0836626739e+01
 3  2  1     0.0000000000e+00
 3  2  2     0.0000000000e+00
 3  2  3    -6.2565293651e+00
 3  3  1     1.2440844185e+01
 3  3  2    -7.1827247389e+00
 3  3  3     0.0000000000e+00

   27
0.0000000000e+00 0.0000000000e+00 0.0000000000e+00
0.0000000000e+00 0.0000000000e+00 0.0000000000e+00
     1      2      2
 1  1  1     1.1175770958e+02
 1  1  2    -7.4477796792e+01
 1  1  3     0.0000000000e+00
 1  2  1    -7.4477796792e+01
 1  2  2     3.8764402737e+01
 1  2  3     0.0000000000e+00
 1  3  1     0.0000000000e+00
 1  3  2     0.0000000000e+00
 1  3  3    -1.0836626739e+01
 2  1  1    -7.5787082469e+01
 2  1  2     3.6496653423e+01
 2  1  3     0.0000000000e+00
 2  2  1     3.6496653423e+01
 2  2  2    -1.1116899598e+01
 2  2  3     0.0000000000e+00
 2  3  1     0.0000000000e+00
 2  3  2     0.0000000000e+00
 2  3  3     6.2565293651e+00
 3  1  1     0.0000000000e+00
 3  1  2     0.0000000000e+00
 3  1  3    -1.2440844185e+01
 3  2  1     0.0000000000e+00
 3  2  2     0.0000000000e+00
 3  2  3     7.1827247389e+00
 3  3  1    -1.2440844185e+01
 3  3  2     7.1827247389e+00
 3  3  3     0.0000000000e+00

   28
0.0000000000e+00 0.0000000000e+00 0.0000000000e+00
1.2340391868e+00 -2.1374185701e+00 0.0000000000e+00
     1      2      1
 1  1  1     2.5509490709e-01
 1  1  2    -3.4737465598e+00
 1  1  3     0.0000000000e+00
 1  2  1     6.1289985925e-02
 1  2  2    -1.9559226656e+00
 1  2  3     0.0000000000e+00
 1  3  1     0.0000000000e+00
 1  3  2     0.0000000000e+00
 1  3  3     3.1767522002e-01
 2  1  1     5.8602786853e-01
 2  1  2     1.8230283792e+00
 2  1  3     0.0000000000e+00
 2  2  1     3.8798919347e-01
 2  2  2     1.1385150528e+00
 2  2  3     0.0000000000e+00
 2  3  1     0.0000000000e+00
 2  3  2     0.0000000000e+00
 2  3  3     1.9972792695e+00
 3  1  1     0.0000000000e+00
 3  1  2     0.0000000000e+00
 3  1  3     5.8246003662e-03
 3  2  1     0.0000000000e+00
 3  2  2     0.0000000000e+00
 3  2  3     3.3628345893e-03
 3  3  1     1.8885321959e+00
 3  3  2    -7.2352482407e-01
 3  3  3     0.0000000000e+00

   29
0.0000000000e+00 0.0000000000e+00 0.0000000000e+00
1.2340391868e+00 -2.1374185701e+00 0.0000000000e+00
     1      2      2
 1  1  1    -1.6393296173e+00
 1  1  2     8.3017311349e-01
 1  1  3     0.0000000000e+00
 1  2  1    -1.7820246164e+00
 1  2  2     4.8110728008e-01
 1  2  3     0.0000000000e+00
 1  3  1     0.0000000000e+00
 1  3  2     0.0000000000e+00
 1  3  3    -4.4861249832e-01
 2  1  1     1.1798739110e+00
 2  1  2    -7.9152082730e-01
 2  1  3     0.0000000000e+00
 2  2  1     8.6607207970e-01
 2  2  2    -7.6589639624e-01
 2  2  3     0.0000000000e+00
 2  3  1     0.0000000000e+00
 2  3  2     0.0000000000e+00
 2  3  3    -2.6574412184e-01
 3  1  1     0.0000000000e+00
 3  1  2     0.0000000000e+00
 3  1  3    -3.6855570065e-02
 3  2  1     0.0000000000e+00
 3  2  2     0.0000000000e+00
 3  2  3    -9.7325323064e-01
 3  3  1    -1.7113935386e-01
 3  3  2    -7.2974772899e-01
 3  3  3     0.0000000000e+00

   30
0.0000000000e+00 0.0000000000e+00 0.0000000000e+00
-1.2340391868e+00 2.1374185701e+00 0.0000000000e+00
     1      2      1
 1  1  1     1.6393296173e+00
 1  1  2    -8.3017311349e-01
 1  1  3     0.0000000000e+00
 1  2  1    -1.1798739110e+00
 1  2  2     7.9152082730e-01
 1  2  3     0.0000000000e+00
 1  3  1     0.0000000000e+00
 1  3  2     0.0000000000e+00
 1  3  3     3.6855570065e-02
 2  1  1     1.7820246164e+00
 2  1  2    -4.8110728008e-01
 2  1  3     0.0000000000e+00
 2  2  1    -8.6607207970e-01
 2  2  2     7.6589639624e-01
 2  2  3     0.0000000000e+00
 2  3  1     0.0000000000e+00
 2  3  2     0.0000000000e+00
 2  3  3     9.7325323064e-01
 3  1  1     0.0000000000e+00
 3  1  2     0.0000000000e+00
 3  1  3     4.4861249832e-01
 3  2  1     0.0000000000e+00
 3  2  2     0.0000000000e+00
 3  2  3     2.6574412184e-01
 3  3  1     1.7113935386e-01
 3  3  2     7.2974772899e-01
 3  3  3     0.0000000000e+00

   31
0.0000000000e+00 0.0000000000e+00 0.0000000000e+00
-1.2340391868e+00 2.1374185701e+00 0.0000000000e+00
     1      2      2
 1  1  1    -2.5509490709e-01
 1  1  2     3.4737465598e+00
 1  1  3     0.0000000000e+00
 1  2  1    -5.8602786853e-01
 1  2  2    -1.8230283792e+00
 1  2  3     0.0000000000e+00
 1  3  1     0.0000000000e+00
 1  3  2     0.0000000000e+00
 1  3  3    -5.8246003662e-03
 2  1  1    -6.1289985925e-02
 2  1  2     1.9559226656e+00
 2  1  3     0.0000000000e+00
 2  2  1    -3.8798919347e-01
 2  2  2    -1.1385150528e+00
 2  2  3     0.0000000000e+00
 2  3  1     0.0000000000e+00
 2  3  2     0.0000000000e+00
 2  3  3    -3.3628345893e-03
 3  1  1     0.0000000000e+00
 3  1  2     0.0000000000e+00
 3  1  3    -3.1767522002e-01
 3  2  1     0.0000000000e+00
 3  2  2     0.0000000000e+00
 3  2  3    -1.9972792695e+00
 3  3  1    -1.8885321959e+00
 3  3  2     7.2352482407e-01
 3  3  3     0.0000000000e+00

   32
0.0000000000e+00 0.0000000000e+00 0.0000000000e+00
1.2340391868e+00 2.1374185701e+00 0.0000000000e+00
     1      2      1
 1  1  1    -1.9052567320e+00
 1  1  2    -5.5951045393e-01
 1  1  3     0.0000000000e+00
 1  2  1     2.2566633947e+00
 1  2  2     1.0476035122e+00
 1  2  3     0.0000000000e+00
 1  3  1     0.0000000000e+00
 1  3  2     0.0000000000e+00
 1  3  3    -3.0813704151e-01
 2  1  1    -4.2321918361e-01
 2  1  2     1.7394109537e-02
 2  1  3     0.0000000000e+00
 2  2  1     9.9997681625e-01
 2  2  2     8.5060315736e-01
 2  2  3     0.0000000000e+00
 2  3  1     0.0000000000e+00
 2  3  2     0.0000000000e+00
 2  3  3    -6.4593427972e-01
 3  1  1     0.0000000000e+00
 3  1  2     0.0000000000e+00
 3  1  3    -2.9078415663e-01
 3  2  1     0.0000000000e+00
 3  2  2     0.0000000000e+00