14.400
   9.4761300   0.0000000   0.0000000   0.0000000   9.4761300   0.0000000   0.0000000   0.0000000   9.4761300
   2.1281317   0.0000000   0.0000000   0.0000000   2.1281317   0.0000000   0.0000000   0.0000000   2.1281317
  -2.1281317   0.0000000   0.0000000   0.0000000  -2.1281317   0.0000000   0.0000000   0.0000000  -2.1281317
