 1166

    1
0.0000000000e+00 0.0000000000e+00 0.0000000000e+00
0.0000000000e+00 0.0000000000e+00 0.0000000000e+00
     1      1      1
 1  1  1     0.0000000000e+00
 1  1  2     0.0000000000e+00
 1  1  3     0.0000000000e+00
 1  2  1     0.0000000000e+00
 1  2  2     0.0000000000e+00
 1  2  3     2.5857790424e+01
 1  3  1     0.0000000000e+00
 1  3  2     2.5857790424e+01
 1  3  3     0.0000000000e+00
 2  1  1     0.0000000000e+00
 2  1  2     0.0000000000e+00
 2  1  3     2.5857790424e+01
 2  2  1     0.0000000000e+00
 2  2  2     0.0000000000e+00
 2  2  3     0.0000000000e+00
 2  3  1     2.5857790424e+01
 2  3  2     0.0000000000e+00
 2  3  3     0.0000000000e+00
 3  1  1     0.0000000000e+00
 3  1  2     2.5857790424e+01
 3  1  3     0.0000000000e+00
 3  2  1     2.5857790424e+01
 3  2  2     0.0000000000e+00
 3  2  3     0.0000000000e+00
 3  3  1     0.0000000000e+00
 3  3  2     0.0000000000e+00
 3  3  3     0.0000000000e+00

    2
0.0000000000e+00 0.0000000000e+00 0.0000000000e+00
0.0000000000e+00 0.0000000000e+00 0.0000000000e+00
     1      1      2
 1  1  1    -2.4956947361e+00
 1  1  2    -4.8207018693e+00
 1  1  3    -4.8207018693e+00
 1  2  1    -5.1513907294e+00
 1  2  2    -5.1513907294e+00
 1  2  3    -6.4628900255e+00
 1  3  1    -5.1513907294e+00
 1  3  2    -6.4628900255e+00
 1  3  3    -5.1513907294e+00
 2  1  1    -5.1513907294e+00
 2  1  2    -5.1513907294e+00
 2  1  3    -6.4628900255e+00
 2  2  1    -4.8207018693e+00
 2  2  2    -2.4956947361e+00
 2  2  3    -4.8207018693e+00
 2  3  1    -6.4628900255e+00
 2  3  2    -5.1513907294e+00
 2  3  3    -5.1513907294e+00
 3  1  1    -5.1513907294e+00
 3  1  2    -6.4628900255e+00
 3  1  3    -5.1513907294e+00
 3  2  1    -6.4628900255e+00
 3  2  2    -5.1513907294e+00
 3  2  3    -5.1513907294e+00
 3  3  1    -4.8207018693e+00
 3  3  2    -4.8207018693e+00
 3  3  3    -2.4956947361e+00

    3
0.0000000000e+00 0.0000000000e+00 0.0000000000e+00
0.0000000000e+00 2.8193787577e+00 2.8193787577e+00
     1      1      1
 1  1  1    -1.6215952212e-02
 1  1  2    -3.3214233827e-02
 1  1  3    -3.3214233827e-02
 1  2  1    -6.2470340342e-03
 1  2  2    -1.4603742357e-01
 1  2  3     3.8449042692e-02
 1  3  1    -6.2470340342e-03
 1  3  2     3.8449042692e-02
 1  3  3    -1.4603742357e-01
 2  1  1    -6.2470340342e-03
 2  1  2    -1.4603742357e-01
 2  1  3     3.8449042692e-02
 2  2  1    -1.3965145701e-01
 2  2  2    -1.9827500000e-01
 2  2  3    -1.1393183125e-01
 2  3  1    -4.6334106230e-02
 2  3  2    -2.7753458347e-01
 2  3  3    -2.7753458347e-01
 3  1  1    -6.2470340342e-03
 3  1  2     3.8449042692e-02
 3  1  3    -1.4603742357e-01
 3  2  1    -4.6334106230e-02
 3  2  2    -2.7753458347e-01
 3  2  3    -2.7753458347e-01
 3  3  1    -1.3965145701e-01
 3  3  2    -1.1393183125e-01
 3  3  3    -1.9827500000e-01

    4
0.0000000000e+00 0.0000000000e+00 0.0000000000e+00
0.0000000000e+00 -2.8193787577e+00 -2.8193787577e+00
     1      1      1
 1  1  1    -1.6215952212e-02
 1  1  2     3.3214233827e-02
 1  1  3     3.3214233827e-02
 1  2  1     6.2470340342e-03
 1  2  2    -1.4603742357e-01
 1  2  3     3.8449042692e-02
 1  3  1     6.2470340342e-03
 1  3  2     3.8449042692e-02
 1  3  3    -1.4603742357e-01
 2  1  1     6.2470340342e-03
 2  1  2    -1.4603742357e-01
 2  1  3     3.8449042692e-02
 2  2  1    -1.3965145701e-01
 2  2  2     1.9827500000e-01
 2  2  3     1.1393183125e-01
 2  3  1    -4.6334106230e-02
 2  3  2     2.7753458347e-01
 2  3  3     2.7753458347e-01
 3  1  1     6.2470340342e-03
 3  1  2     3.8449042692e-02
 3  1  3    -1.4603742357e-01
 3  2  1    -4.6334106230e-02
 3  2  2     2.7753458347e-01
 3  2  3     2.7753458347e-01
 3  3  1    -1.3965145701e-01
 3  3  2     1.1393183125e-01
 3  3  3     1.9827500000e-01

    5
0.0000000000e+00 0.0000000000e+00 0.0000000000e+00
0.0000000000e+00 -2.8193787577e+00 -2.8193787577e+00
     1      1      2
 1  1  1    -2.4956947361e+00
 1  1  2     4.8207018693e+00
 1  1  3     4.8207018693e+00
 1  2  1     5.1513907294e+00
 1  2  2    -5.1513907294e+00
 1  2  3    -6.4628900255e+00
 1  3  1     5.1513907294e+00
 1  3  2    -6.4628900255e+00
 1  3  3    -5.1513907294e+00
 2  1  1     5.1513907294e+00
 2  1  2    -5.1513907294e+00
 2  1  3    -6.4628900255e+00
 2  2  1    -4.8207018693e+00
 2  2  2     2.4956947361e+00
 2  2  3     4.8207018693e+00
 2  3  1    -6.4628900255e+00
 2  3  2     5.1513907294e+00
 2  3  3     5.1513907294e+00
 3  1  1     5.1513907294e+00
 3  1  2    -6.4628900255e+00
 3  1  3    -5.1513907294e+00
 3  2  1    -6.4628900255e+00
 3  2  2     5.1513907294e+00
 3  2  3     5.1513907294e+00
 3  3  1    -4.8207018693e+00
 3  3  2     4.8207018693e+00
 3  3  3     2.4956947361e+00

    6
0.0000000000e+00 0.0000000000e+00 0.0000000000e+00
2.8193787577e+00 0.0000000000e+00 2.8193787577e+00
     1      1      1
 1  1  1    -1.9827500000e-01
 1  1  2    -1.3965145701e-01
 1  1  3    -1.1393183125e-01
 1  2  1    -1.4603742357e-01
 1  2  2    -6.2470340342e-03
 1  2  3     3.8449042692e-02
 1  3  1    -2.7753458347e-01
 1  3  2    -4.6334106230e-02
 1  3  3    -2.7753458347e-01
 2  1  1    -1.4603742357e-01
 2  1  2    -6.2470340342e-03
 2  1  3     3.8449042692e-02
 2  2  1    -3.3214233827e-02
 2  2  2    -1.6215952212e-02
 2  2  3    -3.3214233827e-02
 2  3  1     3.8449042692e-02
 2  3  2    -6.2470340342e-03
 2  3  3    -1.4603742357e-01
 3  1  1    -2.7753458347e-01
 3  1  2    -4.6334106230e-02
 3  1  3    -2.7753458347e-01
 3  2  1     3.8449042692e-02
 3  2  2    -6.2470340342e-03
 3  2  3    -1.4603742357e-01
 3  3  1    -1.1393183125e-01
 3  3  2    -1.3965145701e-01
 3  3  3    -1.9827500000e-01

    7
0.0000000000e+00 0.0000000000e+00 0.0000000000e+00
2.8193787577e+00 -2.8193787577e+00 5.5511151231e-16
     1      1      1
 1  1  1    -1.9827500000e-01
 1  1  2     1.1393183125e-01
 1  1  3     1.3965145701e-01
 1  2  1     2.7753458347e-01
 1  2  2    -2.7753458347e-01
 1  2  3    -4.6334106230e-02
 1  3  1     1.4603742357e-01
 1  3  2     3.8449042692e-02
 1  3  3    -6.2470340342e-03
 2  1  1     2.7753458347e-01
 2  1  2    -2.7753458347e-01
 2  1  3    -4.6334106230e-02
 2  2  1    -1.1393183125e-01
 2  2  2     1.9827500000e-01
 2  2  3     1.3965145701e-01
 2  3  1     3.8449042692e-02
 2  3  2     1.4603742357e-01
 2  3  3     6.2470340342e-03
 3  1  1     1.4603742357e-01
 3  1  2     3.8449042692e-02
 3  1  3    -6.2470340342e-03
 3  2  1     3.8449042692e-02
 3  2  2     1.4603742357e-01
 3  2  3     6.2470340342e-03
 3  3  1    -3.3214233827e-02
 3  3  2     3.3214233827e-02
 3  3  3     1.6215952212e-02

    8
0.0000000000e+00 0.0000000000e+00 0.0000000000e+00
2.8193787577e+00 -2.8193787577e+00 0.0000000000e+00
     1      1      2
 1  1  1     4.8499635538e-02
 1  1  2    -1.1230650803e-02
 1  1  3     1.1230650803e-02
 1  2  1    -9.8997108404e-03
 1  2  2    -3.3459292350e-03
 1  2  3    -1.3921917185e-02
 1  3  1     9.8997108404e-03
 1  3  2    -1.3921917185e-02
 1  3  3    -3.3459292350e-03
 2  1  1    -9.8997108404e-03
 2  1  2    -3.3459292350e-03
 2  1  3    -1.3921917185e-02
 2  2  1     5.0477378809e-02
 2  2  2    -9.5835215395e-02
 2  2  3     4.1587709700e-02
 2  3  1     5.0834977382e-02
 2  3  2    -1.1159857527e-01
 2  3  3     1.1159857527e-01
 3  1  1     9.8997108404e-03
 3  1  2    -1.3921917185e-02
 3  1  3    -3.3459292350e-03
 3  2  1     5.0834977382e-02
 3  2  2    -1.1159857527e-01
 3  2  3     1.1159857527e-01
 3  3  1     5.0477378809e-02
 3  3  2    -4.1587709700e-02
 3  3  3     9.5835215395e-02

    9
0.0000000000e+00 0.0000000000e+00 0.0000000000e+00
-2.8193787577e+00 0.0000000000e+00 -2.8193787577e+00
     1      1      1
 1  1  1     1.9827500000e-01
 1  1  2    -1.3965145701e-01
 1  1  3     1.1393183125e-01
 1  2  1    -1.4603742357e-01
 1  2  2     6.2470340342e-03
 1  2  3     3.8449042692e-02
 1  3  1     2.7753458347e-01
 1  3  2    -4.6334106230e-02
 1  3  3     2.7753458347e-01
 2  1  1    -1.4603742357e-01
 2  1  2     6.2470340342e-03
 2  1  3     3.8449042692e-02
 2  2  1     3.3214233827e-02
 2  2  2    -1.6215952212e-02
 2  2  3     3.3214233827e-02
 2  3  1     3.8449042692e-02
 2  3  2     6.2470340342e-03
 2  3  3    -1.4603742357e-01
 3  1  1     2.7753458347e-01
 3  1  2    -4.6334106230e-02
 3  1  3     2.7753458347e-01
 3  2  1     3.8449042692e-02
 3  2  2     6.2470340342e-03
 3  2  3    -1.4603742357e-01
 3  3  1     1.1393183125e-01
 3  3  2    -1.3965145701e-01
 3  3  3     1.9827500000e-01

   10
0.0000000000e+00 0.0000000000e+00 0.0000000000e+00
-2.8193787577e+00 0.0000000000e+00 -2.8193787577e+00
     1      1      2
 1  1  1     2.4956947361e+00
 1  1  2    -4.8207018693e+00
 1  1  3     4.8207018693e+00
 1  2  1    -5.1513907294e+00
 1  2  2     5.1513907294e+00
 1  2  3    -6.4628900255e+00
 1  3  1     5.1513907294e+00
 1  3  2    -6.4628900255e+00
 1  3  3     5.1513907294e+00
 2  1  1    -5.1513907294e+00
 2  1  2     5.1513907294e+00
 2  1  3    -6.4628900255e+00
 2  2  1     4.8207018693e+00
 2  2  2    -2.4956947361e+00
 2  2  3     4.8207018693e+00
 2  3  1    -6.4628900255e+00
 2  3  2     5.1513907294e+00
 2  3  3    -5.1513907294e+00
 3  1  1     5.1513907294e+00
 3  1  2    -6.4628900255e+00
 3  1  3     5.1513907294e+00
 3  2  1    -6.4628900255e+00
 3  2  2     5.1513907294e+00
 3  2  3    -5.1513907294e+00
 3  3  1     4.8207018693e+00
 3  3  2    -4.8207018693e+00
 3  3  3     2.4956947361e+00

   11
0.0000000000e+00 0.0000000000e+00 0.0000000000e+00
-2.8193787577e+00 2.8193787577e+00 5.5511151231e-16
     1      1      1
 1  1  1     1.9827500000e-01
 1  1  2    -1.1393183125e-01
 1  1  3     1.3965145701e-01
 1  2  1    -2.7753458347e-01
 1  2  2     2.7753458347e-01
 1  2  3    -4.6334106230e-02
 1  3  1     1.4603742357e-01
 1  3  2     3.8449042692e-02
 1  3  3     6.2470340342e-03
 2  1  1    -2.7753458347e-01
 2  1  2     2.7753458347e-01
 2  1  3    -4.6334106230e-02
 2  2  1     1.1393183125e-01
 2  2  2    -1.9827500000e-01
 2  2  3     1.3965145701e-01
 2  3  1     3.8449042692e-02
 2  3  2     1.4603742357e-01
 2  3  3    -6.2470340342e-03
 3  1  1     1.4603742357e-01
 3  1  2     3.8449042692e-02
 3  1  3     6.2470340342e-03
 3  2  1     3.8449042692e-02
 3  2  2     1.4603742357e-01
 3  2  3    -6.2470340342e-03
 3  3  1     3.3214233827e-02
 3  3  2    -3.3214233827e-02
 3  3  3     1.6215952212e-02

   12
0.0000000000e+00 0.0000000000e+00 0.0000000000e+00
-2.8193787577e+00 2.8193787577e+00 0.0000000000e+00
     1      1      2
 1  1  1    -9.5835215395e-02
 1  1  2     5.0477378809e-02
 1  1  3     4.1587709700e-02
 1  2  1    -3.3459292350e-03
 1  2  2    -9.8997108404e-03
 1  2  3    -1.3921917185e-02
 1  3  1    -1.1159857527e-01
 1  3  2     5.0834977382e-02
 1  3  3     1.1159857527e-01
 2  1  1    -3.3459292350e-03
 2  1  2    -9.8997108404e-03
 2  1  3    -1.3921917185e-02
 2  2  1    -1.1230650803e-02
 2  2  2     4.8499635538e-02
 2  2  3     1.1230650803e-02
 2  3  1    -1.3921917185e-02
 2  3  2     9.8997108404e-03
 2  3  3    -3.3459292350e-03
 3  1  1    -1.1159857527e-01
 3  1  2     5.0834977382e-02
 3  1  3     1.1159857527e-01
 3  2  1    -1.3921917185e-02
 3  2  2     9.8997108404e-03
 3  2  3    -3.3459292350e-03
 3  3  1    -4.1587709700e-02
 3  3  2     5.0477378809e-02
 3  3  3     9.5835215395e-02

   13
0.0000000000e+00 0.0000000000e+00 0.0000000000e+00
-2.8193787577e+00 -2.8193787577e+00 -5.6387575154e+00
     1      1      2
 1  1  1    -9.5835215395e-02
 1  1  2    -4.1587709700e-02
 1  1  3    -5.0477378809e-02
 1  2  1     1.1159857527e-01
 1  2  2     1.1159857527e-01
 1  2  3     5.0834977382e-02
 1  3  1     3.3459292350e-03
 1  3  2    -1.3921917185e-02
 1  3  3    -9.8997108404e-03
 2  1  1     1.1159857527e-01
 2  1  2     1.1159857527e-01
 2  1  3     5.0834977382e-02
 2  2  1    -4.1587709700e-02
 2  2  2    -9.5835215395e-02
 2  2  3    -5.0477378809e-02
 2  3  1    -1.3921917185e-02
 2  3  2     3.3459292350e-03
 2  3  3    -9.8997108404e-03
 3  1  1     3.3459292350e-03
 3  1  2    -1.3921917185e-02
 3  1  3    -9.8997108404e-03
 3  2  1    -1.3921917185e-02
 3  2  2     3.3459292350e-03
 3  2  3    -9.8997108404e-03
 3  3  1    -1.1230650803e-02
 3  3  2    -1.1230650803e-02
 3  3  3    -4.8499635538e-02

   14
0.0000000000e+00 0.0000000000e+00 0.0000000000e+00
2.8193787577e+00 2.8193787577e+00 0.0000000000e+00
     1      1      1
 1  1  1    -1.9827500000e-01
 1  1  2    -1.1393183125e-01
 1  1  3    -1.3965145701e-01
 1  2  1    -2.7753458347e-01
 1  2  2    -2.7753458347e-01
 1  2  3    -4.6334106230e-02
 1  3  1    -1.4603742357e-01
 1  3  2     3.8449042692e-02
 1  3  3    -6.2470340342e-03
 2  1  1    -2.7753458347e-01
 2  1  2    -2.7753458347e-01
 2  1  3    -4.6334106230e-02
 2  2  1    -1.1393183125e-01
 2  2  2    -1.9827500000e-01
 2  2  3    -1.3965145701e-01
 2  3  1     3.8449042692e-02
 2  3  2    -1.4603742357e-01
 2  3  3    -6.2470340342e-03
 3  1  1    -1.4603742357e-01
 3  1  2     3.8449042692e-02
 3  1  3    -6.2470340342e-03
 3  2  1     3.8449042692e-02
 3  2  2    -1.4603742357e-01
 3  2  3    -6.2470340342e-03
 3  3  1    -3.3214233827e-02
 3  3  2    -3.3214233827e-02
 3  3  3    -1.6215952212e-02

   15
0.0000000000e+00 0.0000000000e+00 0.0000000000e+00
2.8193787577e+00 5.5511151231e-16 -2.8193787577e+00
     1      1      1
 1  1  1    -1.9827500000e-01
 1  1  2     1.3965145701e-01
 1  1  3     1.1393183125e-01
 1  2  1     1.4603742357e-01
 1  2  2    -6.2470340342e-03
 1  2  3     3.8449042692e-02
 1  3  1     2.7753458347e-01
 1  3  2    -4.6334106230e-02
 1  3  3    -2.7753458347e-01
 2  1  1     1.4603742357e-01
 2  1  2    -6.2470340342e-03
 2  1  3     3.8449042692e-02
 2  2  1    -3.3214233827e-02
 2  2  2     1.6215952212e-02
 2  2  3     3.3214233827e-02
 2  3  1     3.8449042692e-02
 2  3  2     6.2470340342e-03
 2  3  3     1.4603742357e-01
 3  1  1     2.7753458347e-01
 3  1  2    -4.6334106230e-02
 3  1  3    -2.7753458347e-01
 3  2  1     3.8449042692e-02
 3  2  2     6.2470340342e-03
 3  2  3     1.4603742357e-01
 3  3  1    -1.1393183125e-01
 3  3  2     1.3965145701e-01
 3  3  3     1.9827500000e-01

   16
0.0000000000e+00 0.0000000000e+00 0.0000000000e+00
2.8193787577e+00 0.0000000000e+00 -2.8193787577e+00
     1      1      2
 1  1  1     4.8499635538e-02
 1  1  2     1.1230650803e-02
 1  1  3    -1.1230650803e-02
 1  2  1     9.8997108404e-03
 1  2  2    -3.3459292350e-03
 1  2  3    -1.3921917185e-02
 1  3  1    -9.8997108404e-03
 1  3  2    -1.3921917185e-02
 1  3  3    -3.3459292350e-03
 2  1  1     9.8997108404e-03
 2  1  2    -3.3459292350e-03
 2  1  3    -1.3921917185e-02
 2  2  1     5.0477378809e-02
 2  2  2     9.5835215395e-02
 2  2  3    -4.1587709700e-02
 2  3  1     5.0834977382e-02
 2  3  2     1.1159857527e-01
 2  3  3    -1.1159857527e-01
 3  1  1    -9.8997108404e-03
 3  1  2    -1.3921917185e-02
 3  1  3    -3.3459292350e-03
 3  2  1     5.0834977382e-02
 3  2  2     1.1159857527e-01
 3  2  3    -1.1159857527e-01
 3  3  1     5.0477378809e-02
 3  3  2     4.1587709700e-02
 3  3  3    -9.5835215395e-02

   17
0.0000000000e+00 0.0000000000e+00 0.0000000000e+00
5.6387575154e+00 5.5511151231e-16 5.5511151231e-16
     1      1      1
 1  1  1     1.4907500000e-01
 1  1  2     0.0000000000e+00
 1  1  3     0.0000000000e+00
 1  2  1     0.0000000000e+00
 1  2  2     1.7878143028e-02
 1  2  3    -3.9963932952e-02
 1  3  1     0.0000000000e+00
 1  3  2    -3.9963932952e-02
 1  3  3     1.7878143028e-02
 2  1  1     0.0000000000e+00
 2  1  2     1.7878143028e-02
 2  1  3    -3.9963932952e-02
 2  2  1     3.5668611365e-02
 2  2  2     0.0000000000e+00
 2  2  3     0.0000000000e+00
 2  3  1    -3.0297455174e-02
 2  3  2     0.0000000000e+00
 2  3  3     0.0000000000e+00
 3  1  1     0.0000000000e+00
 3  1  2    -3.9963932952e-02
 3  1  3     1.7878143028e-02
 3  2  1    -3.0297455174e-02
 3  2  2     0.0000000000e+00
 3  2  3     0.0000000000e+00
 3  3  1     3.5668611365e-02
 3  3  2     0.0000000000e+00
 3  3  3     0.0000000000e+00

   18
0.0000000000e+00 0.0000000000e+00 0.0000000000e+00
5.5511151231e-16 2.8193787577e+00 -2.8193787577e+00
     1      1      1
 1  1  1     1.6215952212e-02
 1  1  2    -3.3214233827e-02
 1  1  3     3.3214233827e-02
 1  2  1    -6.2470340342e-03
 1  2  2     1.4603742357e-01
 1  2  3     3.8449042692e-02
 1  3  1     6.2470340342e-03
 1  3  2     3.8449042692e-02
 1  3  3     1.4603742357e-01
 2  1  1    -6.2470340342e-03
 2  1  2     1.4603742357e-01
 2  1  3     3.8449042692e-02
 2  2  1     1.3965145701e-01
 2  2  2    -1.9827500000e-01
 2  2  3     1.1393183125e-01
 2  3  1    -4.6334106230e-02
 2  3  2     2.7753458347e-01
 2  3  3    -2.7753458347e-01
 3  1  1     6.2470340342e-03
 3  1  2     3.8449042692e-02
 3  1  3     1.4603742357e-01
 3  2  1    -4.6334106230e-02
 3  2  2     2.7753458347e-01
 3  2  3    -2.7753458347e-01
 3  3  1     1.3965145701e-01
 3  3  2    -1.1393183125e-01
 3  3  3     1.9827500000e-01

   19
0.0000000000e+00 0.0000000000e+00 0.0000000000e+00
0.0000000000e+00 2.8193787577e+00 -2.8193787577e+00
     1      1      2
 1  1  1     9.5835215395e-02
 1  1  2     5.0477378809e-02
 1  1  3    -4.1587709700e-02
 1  2  1    -3.3459292350e-03
 1  2  2     9.8997108404e-03
 1  2  3    -1.3921917185e-02
 1  3  1     1.1159857527e-01
 1  3  2     5.0834977382e-02
 1  3  3    -1.1159857527e-01
 2  1  1    -3.3459292350e-03
 2  1  2     9.8997108404e-03
 2  1  3    -1.3921917185e-02
 2  2  1     1.1230650803e-02
 2  2  2     4.8499635538e-02
 2  2  3    -1.1230650803e-02
 2  3  1    -1.3921917185e-02
 2  3  2    -9.8997108404e-03
 2  3  3    -3.3459292350e-03
 3  1  1     1.1159857527e-01
 3  1  2     5.0834977382e-02
 3  1  3    -1.1159857527e-01
 3  2  1    -1.3921917185e-02
 3  2  2    -9.8997108404e-03
 3  2  3    -3.3459292350e-03
 3  3  1     4.1587709700e-02
 3  3  2     5.0477378809e-02
 3  3  3    -9.5835215395e-02

   20
0.0000000000e+00 0.0000000000e+00 0.0000000000e+00
5.5511151231e-16 5.6387575154e+00 5.5511151231e-16
     1      1      1
 1  1  1     0.0000000000e+00
 1  1  2     3.5668611365e-02
 1  1  3     0.0000000000e+00
 1  2  1     1.7878143028e-02
 1  2  2     0.0000000000e+00
 1  2  3    -3.9963932952e-02
 1  3  1     0.0000000000e+00
 1  3  2    -3.0297455174e-02
 1  3  3     0.0000000000e+00
 2  1  1     1.7878143028e-02
 2  1  2     0.0000000000e+00
 2  1  3    -3.9963932952e-02
 2  2  1     0.0000000000e+00
 2  2  2     1.4907500000e-01
 2  2  3     0.0000000000e+00
 2  3  1    -3.9963932952e-02
 2  3  2     0.0000000000e+00
 2  3  3     1.7878143028e-02
 3  1  1     0.0000000000e+00
 3  1  2    -3.0297455174e-02
 3  1  3     0.0000000000e+00
 3  2  1    -3.9963932952e-02
 3  2  2     0.0000000000e+00
 3  2  3     1.7878143028e-02
 3  3  1     0.0000000000e+00
 3  3  2     3.5668611365e-02
 3  3  3     0.0000000000e+00

   21
0.0000000000e+00 0.0000000000e+00 0.0000000000e+00
5.5511151231e-16 5.5511151231e-16 -5.6387575154e+00
     1      1      1
 1  1  1     0.0000000000e+00
 1  1  2     0.0000000000e+00
 1  1  3    -3.5668611365e-02
 1  2  1     0.0000000000e+00
 1  2  2     0.0000000000e+00
 1  2  3    -3.0297455174e-02
 1  3  1    -1.7878143028e-02
 1  3  2    -3.9963932952e-02
 1  3  3     0.0000000000e+00
 2  1  1     0.0000000000e+00
 2  1  2     0.0000000000e+00
 2  1  3    -3.0297455174e-02
 2  2  1     0.0000000000e+00
 2  2  2     0.0000000000e+00
 2  2  3    -3.5668611365e-02
 2  3  1    -3.9963932952e-02
 2  3  2    -1.7878143028e-02
 2  3  3     0.0000000000e+00
 3  1  1    -1.7878143028e-02
 3  1  2    -3.9963932952e-02
 3  1  3     0.0000000000e+00
 3  2  1    -3.9963932952e-02
 3  2  2    -1.7878143028e-02
 3  2  3     0.0000000000e+00
 3  3  1     0.0000000000e+00
 3  3  2     0.0000000000e+00
 3  3  3    -1.4907500000e-01

   22
0.0000000000e+00 0.0000000000e+00 0.0000000000e+00
0.0000000000e+00 0.0000000000e+00 -5.6387575154e+00
     1      1      2
 1  1  1     9.5835215395e-02
 1  1  2     4.1587709700e-02
 1  1  3    -5.0477378809e-02
 1  2  1    -1.1159857527e-01
 1  2  2    -1.1159857527e-01
 1  2  3     5.0834977382e-02
 1  3  1     3.3459292350e-03
 1  3  2    -1.3921917185e-02
 1  3  3     9.8997108404e-03
 2  1  1    -1.1159857527e-01
 2  1  2    -1.1159857527e-01
 2  1  3     5.0834977382e-02
 2  2  1     4.1587709700e-02
 2  2  2     9.5835215395e-02
 2  2  3    -5.0477378809e-02
 2  3  1    -1.3921917185e-02
 2  3  2     3.3459292350e-03
 2  3  3     9.8997108404e-03
 3  1  1     3.3459292350e-03
 3  1  2    -1.3921917185e-02
 3  1  3     9.8997108404e-03
 3  2  1    -1.3921917185e-02
 3  2  2     3.3459292350e-03
 3  2  3     9.8997108404e-03
 3  3  1     1.1230650803e-02
 3  3  2     1.1230650803e-02
 3  3  3    -4.8499635538e-02

   23
0.0000000000e+00 0.0000000000e+00 0.0000000000e+00
-2.8193787577e+00 -2.8193787577e+00 0.0000000000e+00
     1      1      1
 1  1  1     1.9827500000e-01
 1  1  2     1.1393183125e-01
 1  1  3    -1.3965145701e-01
 1  2  1     2.7753458347e-01
 1  2  2     2.7753458347e-01
 1  2  3    -4.6334106230e-02
 1  3  1    -1.4603742357e-01
 1  3  2     3.8449042692e-02
 1  3  3     6.2470340342e-03
 2  1  1     2.7753458347e-01
 2  1  2     2.7753458347e-01
 2  1  3    -4.6334106230e-02
 2  2  1     1.1393183125e-01
 2  2  2     1.9827500000e-01
 2  2  3    -1.3965145701e-01
 2  3  1     3.8449042692e-02
 2  3  2    -1.4603742357e-01
 2  3  3     6.2470340342e-03
 3  1  1    -1.4603742357e-01
 3  1  2     3.8449042692e-02
 3  1  3     6.2470340342e-03
 3  2  1     3.8449042692e-02
 3  2  2    -1.4603742357e-01
 3  2  3     6.2470340342e-03
 3  3  1     3.3214233827e-02
 3  3  2     3.3214233827e-02
 3  3  3    -1.6215952212e-02

   24
0.0000000000e+00 0.0000000000e+00 0.0000000000e+00
-2.8193787577e+00 -2.8193787577e+00 0.0000000000e+00
     1      1      2
 1  1  1     2.4956947361e+00
 1  1  2     4.8207018693e+00
 1  1  3    -4.8207018693e+00
 1  2  1     5.1513907294e+00
 1  2  2     5.1513907294e+00
 1  2  3    -6.4628900255e+00
 1  3  1    -5.1513907294e+00
 1  3  2    -6.4628900255e+00
 1  3  3     5.1513907294e+00
 2  1  1     5.1513907294e+00
 2  1  2     5.1513907294e+00
 2  1  3    -6.4628900255e+00
 2  2  1     4.8207018693e+00
 2  2  2     2.4956947361e+00
 2  2  3    -4.8207018693e+00
 2  3  1    -6.4628900255e+00
 2  3  2    -5.1513907294e+00
 2  3  3     5.1513907294e+00
 3  1  1    -5.1513907294e+00
 3  1  2    -6.4628900255e+00
 3  1  3     5.1513907294e+00
 3  2  1    -6.4628900255e+00
 3  2  2    -5.1513907294e+00
 3  2  3     5.1513907294e+00
 3  3  1     4.8207018693e+00
 3  3  2     4.8207018693e+00
 3  3  3    -2.4956947361e+00

   25
0.0000000000e+00 0.0000000000e+00 0.0000000000e+00
-2.8193787577e+00 5.5511151231e-16 2.8193787577e+00
     1      1      1
 1  1  1     1.9827500000e-01
 1  1  2     1.3965145701e-01
 1  1  3    -1.1393183125e-01
 1  2  1     1.4603742357e-01
 1  2  2     6.2470340342e-03
 1  2  3     3.8449042692e-02
 1  3  1    -2.7753458347e-01
 1  3  2    -4.6334106230e-02
 1  3  3     2.7753458347e-01
 2  1  1     1.4603742357e-01
 2  1  2     6.2470340342e-03
 2  1  3     3.8449042692e-02
 2  2  1     3.3214233827e-02
 2  2  2     1.6215952212e-02
 2  2  3    -3.3214233827e-02
 2  3  1     3.8449042692e-02
 2  3  2    -6.2470340342e-03
 2  3  3     1.4603742357e-01
 3  1  1    -2.7753458347e-01
 3  1  2    -4.6334106230e-02
 3  1  3     2.7753458347e-01
 3  2  1     3.8449042692e-02
 3  2  2    -6.2470340342e-03
 3  2  3     1.4603742357e-01
 3  3  1     1.1393183125e-01
 3  3  2     1.3965145701e-01
 3  3  3    -1.9827500000e-01

   26
0.0000000000e+00 0.0000000000e+00 0.0000000000e+00
-2.8193787577e+00 0.0000000000e+00 2.8193787577e+00
     1      1      2
 1  1  1    -9.5835215395e-02
 1  1  2     4.1587709700e-02
 1  1  3     5.0477378809e-02
 1  2  1    -1.1159857527e-01
 1  2  2     1.1159857527e-01
 1  2  3     5.0834977382e-02
 1  3  1    -3.3459292350e-03
 1  3  2    -1.3921917185e-02
 1  3  3    -9.8997108404e-03
 2  1  1    -1.1159857527e-01
 2  1  2     1.1159857527e-01
 2  1  3     5.0834977382e-02
 2  2  1    -4.1587709700e-02
 2  2  2     9.5835215395e-02
 2  2  3     5.0477378809e-02
 2  3  1    -1.3921917185e-02
 2  3  2    -3.3459292350e-03
 2  3  3     9.8997108404e-03
 3  1  1    -3.3459292350e-03
 3  1  2    -1.3921917185e-02
 3  1  3    -9.8997108404e-03
 3  2  1    -1.3921917185e-02
 3  2  2    -3.3459292350e-03
 3  2  3     9.8997108404e-03
 3  3  1    -1.1230650803e-02
 3  3  2     1.1230650803e-02
 3  3  3     4.8499635538e-02

   27
0.0000000000e+00 0.0000000000e+00 0.0000000000e+00
-2.8193787577e+00 -5.6387575154e+00 -2.8193787577e+00
     1      1      2
 1  1  1    -9.5835215395e-02
 1  1  2    -5.0477378809e-02
 1  1  3    -4.1587709700e-02
 1  2  1     3.3459292350e-03
 1  2  2    -9.8997108404e-03
 1  2  3    -1.3921917185e-02
 1  3  1     1.1159857527e-01
 1  3  2     5.0834977382e-02
 1  3  3     1.1159857527e-01
 2  1  1     3.3459292350e-03
 2  1  2    -9.8997108404e-03
 2  1  3    -1.3921917185e-02
 2  2  1    -1.1230650803e-02
 2  2  2    -4.8499635538e-02
 2  2  3    -1.1230650803e-02
 2  3  1    -1.3921917185e-02
 2  3  2    -9.8997108404e-03
 2  3  3     3.3459292350e-03
 3  1  1     1.1159857527e-01
 3  1  2     5.0834977382e-02
 3  1  3     1.1159857527e-01
 3  2  1    -1.3921917185e-02
 3  2  2    -9.8997108404e-03
 3  2  3     3.3459292350e-03
 3  3  1    -4.1587709700e-02
 3  3  2    -5.0477378809e-02
 3  3  3    -9.5835215395e-02

   28
0.0000000000e+00 0.0000000000e+00 0.0000000000e+00
5.5511151231e-16 -2.8193787577e+00 2.8193787577e+00
     1      1      1
 1  1  1     1.6215952212e-02
 1  1  2     3.3214233827e-02
 1  1  3    -3.3214233827e-02
 1  2  1     6.2470340342e-03
 1  2  2     1.4603742357e-01
 1  2  3     3.8449042692e-02
 1  3  1    -6.2470340342e-03
 1  3  2     3.8449042692e-02
 1  3  3     1.4603742357e-01
 2  1  1     6.2470340342e-03
 2  1  2     1.4603742357e-01
 2  1  3     3.8449042692e-02
 2  2  1     1.3965145701e-01
 2  2  2     1.9827500000e-01
 2  2  3    -1.1393183125e-01
 2  3  1    -4.6334106230e-02
 2  3  2    -2.7753458347e-01
 2  3  3     2.7753458347e-01
 3  1  1    -6.2470340342e-03
 3  1  2     3.8449042692e-02
 3  1  3     1.4603742357e-01
 3  2  1    -4.6334106230e-02
 3  2  2    -2.7753458347e-01
 3  2  3     2.7753458347e-01
 3  3  1     1.3965145701e-01
 3  3  2     1.1393183125e-01
 3  3  3    -1.9827500000e-01

   29
0.0000000000e+00 0.0000000000e+00 0.0000000000e+00
0.0000000000e+00 -2.8193787577e+00 2.8193787577e+00
     1      1      2
 1  1  1     9.5835215395e-02
 1  1  2    -4.1587709700e-02
 1  1  3     5.0477378809e-02
 1  2  1     1.1159857527e-01
 1  2  2    -1.1159857527e-01
 1  2  3     5.0834977382e-02
 1  3  1    -3.3459292350e-03
 1  3  2    -1.3921917185e-02
 1  3  3     9.8997108404e-03
 2  1  1     1.1159857527e-01
 2  1  2    -1.1159857527e-01
 2  1  3     5.0834977382e-02
 2  2  1     4.1587709700e-02
 2  2  2    -9.5835215395e-02
 2  2  3     5.0477378809e-02
 2  3  1    -1.3921917185e-02
 2  3  2    -3.3459292350e-03
 2  3  3    -9.8997108404e-03
 3  1  1    -3.3459292350e-03
 3  1  2    -1.3921917185e-02
 3  1  3     9.8997108404e-03
 3  2  1    -1.3921917185e-02
 3  2  2    -3.3459292350e-03
 3  2  3    -9.8997108404e-03
 3  3  1     1.1230650803e-02
 3  3  2    -1.1230650803e-02
 3  3  3     4.8499635538e-02

   30
0.0000000000e+00 0.0000000000e+00 0.0000000000e+00
5.5511151231e-16 5.5511151231e-16 5.6387575154e+00
     1      1      1
 1  1  1     0.0000000000e+00
 1  1  2     0.0000000000e+00
 1  1  3     3.5668611365e-02
 1  2  1     0.0000000000e+00
 1  2  2     0.0000000000e+00
 1  2  3    -3.0297455174e-02
 1  3  1     1.7878143028e-02
 1  3  2    -3.9963932952e-02
 1  3  3     0.0000000000e+00
 2  1  1     0.0000000000e+00
 2  1  2     0.0000000000e+00
 2  1  3    -3.0297455174e-02
 2  2  1     0.0000000000e+00
 2  2  2     0.0000000000e+00
 2  2  3     3.5668611365e-02
 2  3  1    -3.9963932952e-02
 2  3  2     1.7878143028e-02
 2  3  3     0.0000000000e+00
 3  1  1     1.7878143028e-02
 3  1  2    -3.9963932952e-02
 3  1  3     0.0000000000e+00
 3  2  1    -3.9963932952e-02
 3  2  2     1.7878143028e-02
 3  2  3     0.0000000000e+00
 3  3  1     0.0000000000e+00
 3  3  2     0.0000000000e+00
 3  3  3     1.4907500000e-01

   31
0.0000000000e+00 0.0000000000e+00 0.0000000000e+00
5.5511151231e-16 -5.6387575154e+00 5.5511151231e-16
     1      1      1
 1  1  1     0.0000000000e+00
 1  1  2    -3.5668611365e-02
 1  1  3     0.0000000000e+00
 1  2  1    -1.7878143028e-02
 1  2  2     0.0000000000e+00
 1  2  3    -3.9963932952e-02
 1  3  1     0.0000000000e+00
 1  3  2    -3.0297455174e-02
 1  3  3     0.0000000000e+00
 2  1  1    -1.7878143028e-02
 2  1  2     0.0000000000e+00
 2  1  3    -3.9963932952e-02
 2  2  1     0.0000000000e+00
 2  2  2    -1.4907500000e-01
 2  2  3     0.0000000000e+00
 2  3  1    -3.9963932952e-02
 2  3  2     0.0000000000e+00
 2  3  3    -1.7878143028e-02
 3  1  1     0.0000000000e+00
 3  1  2    -3.0297455174e-02
 3  1  3     0.0000000000e+00
 3  2  1    -3.9963932952e-02
 3  2  2     0.0000000000e+00
 3  2  3    -1.7878143028e-02
 3  3  1     0.0000000000e+00
 3  3  2    -3.5668611365e-02
 3  3  3     0.0000000000e+00

   32
0.0000000000e+00 0.0000000000e+00 0.0000000000e+00
0.0000000000e+00 -5.6387575154e+00 0.0000000000e+00
     1      1      2
 1  1  1     9.5835215395e-02
 1  1  2    -5.0477378809e-02
 1  1  3     4.1587709700e-02
 1  2  1     3.3459292350e-03
 1  2  2     9.8997108404e-03
 1  2  3    -1.3921917185e-02
 1  3  1    -1.1159857527e-01
 1  3  2     5.0834977382e-02
 1  3  3    -1.1159857527e-01
 2  1  1     3.3459292350e-03
 2  1  2     9.8997108404e-03
 2  1  3    -1.3921917185e-02
 2  2  1     1.1230650803e-02
 2  2  2    -4.8499635538e-02
 2  2  3     1.1230650803e-02
 2  3  1    -1.3921917185e-02
 2  3  2     9.8997108404e-03
 2  3  3     3.3459292350e-03
 3  1  1    -1.1159857527e-01
 3  1  2     5.0834977382e-02
 3  1  3    -1.1159857527e-01
 3  2  1    -1.3921917185e-02
 3  2  2     9.8997108404e-03