 1166

    1
0.0000000000e+00 0.0000000000e+00 0.0000000000e+00
0.0000000000e+00 0.0000000000e+00 0.0000000000e+00
     1      1      1
 1  1  1     0.0000000000e+00
 1  1  2     0.0000000000e+00
 1  1  3     0.0000000000e+00
 1  2  1     0.0000000000e+00
 1  2  2     0.0000000000e+00
 1  2  3     2.8449607457e+01
 1  3  1     0.0000000000e+00
 1  3  2     2.8449607457e+01
 1  3  3     0.0000000000e+00
 2  1  1     0.0000000000e+00
 2  1  2     0.0000000000e+00
 2  1  3     2.8449607457e+01
 2  2  1     0.0000000000e+00
 2  2  2     0.0000000000e+00
 2  2  3     0.0000000000e+00
 2  3  1     2.8449607457e+01
 2  3  2     0.0000000000e+00
 2  3  3     0.0000000000e+00
 3  1  1     0.0000000000e+00
 3  1  2     2.8449607457e+01
 3  1  3     0.0000000000e+00
 3  2  1     2.8449607457e+01
 3  2  2     0.0000000000e+00
 3  2  3     0.0000000000e+00
 3  3  1     0.0000000000e+00
 3  3  2     0.0000000000e+00
 3  3  3     0.0000000000e+00

    2
0.0000000000e+00 0.0000000000e+00 0.0000000000e+00
0.0000000000e+00 0.0000000000e+00 0.0000000000e+00
     1      1      2
 1  1  1    -2.5168414792e+00
 1  1  2    -5.1498990581e+00
 1  1  3    -5.1498990581e+00
 1  2  1    -5.0800507205e+00
 1  2  2    -5.0800507205e+00
 1  2  3    -7.1131760929e+00
 1  3  1    -5.0800507205e+00
 1  3  2    -7.1131760929e+00
 1  3  3    -5.0800507205e+00
 2  1  1    -5.0800507205e+00
 2  1  2    -5.0800507205e+00
 2  1  3    -7.1131760929e+00
 2  2  1    -5.1498990581e+00
 2  2  2    -2.5168414792e+00
 2  2  3    -5.1498990581e+00
 2  3  1    -7.1131760929e+00
 2  3  2    -5.0800507205e+00
 2  3  3    -5.0800507205e+00
 3  1  1    -5.0800507205e+00
 3  1  2    -7.1131760929e+00
 3  1  3    -5.0800507205e+00
 3  2  1    -7.1131760929e+00
 3  2  2    -5.0800507205e+00
 3  2  3    -5.0800507205e+00
 3  3  1    -5.1498990581e+00
 3  3  2    -5.1498990581e+00
 3  3  3    -2.5168414792e+00

    3
0.0000000000e+00 0.0000000000e+00 0.0000000000e+00
0.0000000000e+00 2.8086414872e+00 2.8086414872e+00
     1      1      1
 1  1  1    -8.4633895650e-02
 1  1  2     1.3265247727e-01
 1  1  3     1.3265247727e-01
 1  2  1    -8.1279369460e-02
 1  2  2    -1.4852971028e-01
 1  2  3     1.2467320738e-01
 1  3  1    -8.1279369460e-02
 1  3  2     1.2467320738e-01
 1  3  3    -1.4852971028e-01
 2  1  1    -8.1279369460e-02
 2  1  2    -1.4852971028e-01
 2  1  3     1.2467320738e-01
 2  2  1    -1.9006913702e-01
 2  2  2    -1.3623610298e-01
 2  2  3    -1.9737904456e-01
 2  3  1    -1.2739276285e-01
 2  3  2    -2.0531983275e-01
 2  3  3    -2.0531983275e-01
 3  1  1    -8.1279369460e-02
 3  1  2     1.2467320738e-01
 3  1  3    -1.4852971028e-01
 3  2  1    -1.2739276285e-01
 3  2  2    -2.0531983275e-01
 3  2  3    -2.0531983275e-01
 3  3  1    -1.9006913702e-01
 3  3  2    -1.9737904456e-01
 3  3  3    -1.3623610298e-01

    4
0.0000000000e+00 0.0000000000e+00 0.0000000000e+00
0.0000000000e+00 -2.8086414872e+00 -2.8086414872e+00
     1      1      1
 1  1  1    -8.4633895650e-02
 1  1  2    -1.3265247727e-01
 1  1  3    -1.3265247727e-01
 1  2  1     8.1279369460e-02
 1  2  2    -1.4852971028e-01
 1  2  3     1.2467320738e-01
 1  3  1     8.1279369460e-02
 1  3  2     1.2467320738e-01
 1  3  3    -1.4852971028e-01
 2  1  1     8.1279369460e-02
 2  1  2    -1.4852971028e-01
 2  1  3     1.2467320738e-01
 2  2  1    -1.9006913702e-01
 2  2  2     1.3623610298e-01
 2  2  3     1.9737904456e-01
 2  3  1    -1.2739276285e-01
 2  3  2     2.0531983275e-01
 2  3  3     2.0531983275e-01
 3  1  1     8.1279369460e-02
 3  1  2     1.2467320738e-01
 3  1  3    -1.4852971028e-01
 3  2  1    -1.2739276285e-01
 3  2  2     2.0531983275e-01
 3  2  3     2.0531983275e-01
 3  3  1    -1.9006913702e-01
 3  3  2     1.9737904456e-01
 3  3  3     1.3623610298e-01

    5
0.0000000000e+00 0.0000000000e+00 0.0000000000e+00
0.0000000000e+00 -2.8086414872e+00 -2.8086414872e+00
     1      1      2
 1  1  1    -2.5168414792e+00
 1  1  2     5.1498990581e+00
 1  1  3     5.1498990581e+00
 1  2  1     5.0800507205e+00
 1  2  2    -5.0800507205e+00
 1  2  3    -7.1131760929e+00
 1  3  1     5.0800507205e+00
 1  3  2    -7.1131760929e+00
 1  3  3    -5.0800507205e+00
 2  1  1     5.0800507205e+00
 2  1  2    -5.0800507205e+00
 2  1  3    -7.1131760929e+00
 2  2  1    -5.1498990581e+00
 2  2  2     2.5168414792e+00
 2  2  3     5.1498990581e+00
 2  3  1    -7.1131760929e+00
 2  3  2     5.0800507205e+00
 2  3  3     5.0800507205e+00
 3  1  1     5.0800507205e+00
 3  1  2    -7.1131760929e+00
 3  1  3    -5.0800507205e+00
 3  2  1    -7.1131760929e+00
 3  2  2     5.0800507205e+00
 3  2  3     5.0800507205e+00
 3  3  1    -5.1498990581e+00
 3  3  2     5.1498990581e+00
 3  3  3     2.5168414792e+00

    6
0.0000000000e+00 0.0000000000e+00 0.0000000000e+00
2.8086414872e+00 0.0000000000e+00 2.8086414872e+00
     1      1      1
 1  1  1    -1.3623610298e-01
 1  1  2    -1.9006913702e-01
 1  1  3    -1.9737904456e-01
 1  2  1    -1.4852971028e-01
 1  2  2    -8.1279369460e-02
 1  2  3     1.2467320738e-01
 1  3  1    -2.0531983275e-01
 1  3  2    -1.2739276285e-01
 1  3  3    -2.0531983275e-01
 2  1  1    -1.4852971028e-01
 2  1  2    -8.1279369460e-02
 2  1  3     1.2467320738e-01
 2  2  1     1.3265247727e-01
 2  2  2    -8.4633895650e-02
 2  2  3     1.3265247727e-01
 2  3  1     1.2467320738e-01
 2  3  2    -8.1279369460e-02
 2  3  3    -1.4852971028e-01
 3  1  1    -2.0531983275e-01
 3  1  2    -1.2739276285e-01
 3  1  3    -2.0531983275e-01
 3  2  1     1.2467320738e-01
 3  2  2    -8.1279369460e-02
 3  2  3    -1.4852971028e-01
 3  3  1    -1.9737904456e-01
 3  3  2    -1.9006913702e-01
 3  3  3    -1.3623610298e-01

    7
0.0000000000e+00 0.0000000000e+00 0.0000000000e+00
2.8086414872e+00 -2.8086414872e+00 0.0000000000e+00
     1      1      1
 1  1  1    -1.3623610298e-01
 1  1  2     1.9737904456e-01
 1  1  3     1.9006913702e-01
 1  2  1     2.0531983275e-01
 1  2  2    -2.0531983275e-01
 1  2  3    -1.2739276285e-01
 1  3  1     1.4852971028e-01
 1  3  2     1.2467320738e-01
 1  3  3    -8.1279369460e-02
 2  1  1     2.0531983275e-01
 2  1  2    -2.0531983275e-01
 2  1  3    -1.2739276285e-01
 2  2  1    -1.9737904456e-01
 2  2  2     1.3623610298e-01
 2  2  3     1.9006913702e-01
 2  3  1     1.2467320738e-01
 2  3  2     1.4852971028e-01
 2  3  3     8.1279369460e-02
 3  1  1     1.4852971028e-01
 3  1  2     1.2467320738e-01
 3  1  3    -8.1279369460e-02
 3  2  1     1.2467320738e-01
 3  2  2     1.4852971028e-01
 3  2  3     8.1279369460e-02
 3  3  1     1.3265247727e-01
 3  3  2    -1.3265247727e-01
 3  3  3     8.4633895650e-02

    8
0.0000000000e+00 0.0000000000e+00 0.0000000000e+00
2.8086414872e+00 -2.8086414872e+00 2.7755575616e-16
     1      1      2
 1  1  1    -5.4955331680e-02
 1  1  2    -2.6611436924e-02
 1  1  3     2.6611436924e-02
 1  2  1    -2.5687915684e-02
 1  2  2    -6.7071807814e-02
 1  2  3    -6.0650179192e-02
 1  3  1     2.5687915684e-02
 1  3  2    -6.0650179192e-02
 1  3  3    -6.7071807814e-02
 2  1  1    -2.5687915684e-02
 2  1  2    -6.7071807814e-02
 2  1  3    -6.0650179192e-02
 2  2  1    -2.0860070746e-02
 2  2  2    -4.0721292578e-02
 2  2  3     9.8681225176e-02
 2  3  1     1.5372732206e-02
 2  3  2    -1.0732607252e-02
 2  3  3     1.0732607252e-02
 3  1  1     2.5687915684e-02
 3  1  2    -6.0650179192e-02
 3  1  3    -6.7071807814e-02
 3  2  1     1.5372732206e-02
 3  2  2    -1.0732607252e-02
 3  2  3     1.0732607252e-02
 3  3  1    -2.0860070746e-02
 3  3  2    -9.8681225176e-02
 3  3  3     4.0721292578e-02

    9
0.0000000000e+00 0.0000000000e+00 0.0000000000e+00
-2.8086414872e+00 0.0000000000e+00 -2.8086414872e+00
     1      1      1
 1  1  1     1.3623610298e-01
 1  1  2    -1.9006913702e-01
 1  1  3     1.9737904456e-01
 1  2  1    -1.4852971028e-01
 1  2  2     8.1279369460e-02
 1  2  3     1.2467320738e-01
 1  3  1     2.0531983275e-01
 1  3  2    -1.2739276285e-01
 1  3  3     2.0531983275e-01
 2  1  1    -1.4852971028e-01
 2  1  2     8.1279369460e-02
 2  1  3     1.2467320738e-01
 2  2  1    -1.3265247727e-01
 2  2  2    -8.4633895650e-02
 2  2  3    -1.3265247727e-01
 2  3  1     1.2467320738e-01
 2  3  2     8.1279369460e-02
 2  3  3    -1.4852971028e-01
 3  1  1     2.0531983275e-01
 3  1  2    -1.2739276285e-01
 3  1  3     2.0531983275e-01
 3  2  1     1.2467320738e-01
 3  2  2     8.1279369460e-02
 3  2  3    -1.4852971028e-01
 3  3  1     1.9737904456e-01
 3  3  2    -1.9006913702e-01
 3  3  3     1.3623610298e-01

   10
0.0000000000e+00 0.0000000000e+00 0.0000000000e+00
-2.8086414872e+00 0.0000000000e+00 -2.8086414872e+00
     1      1      2
 1  1  1     2.5168414792e+00
 1  1  2    -5.1498990581e+00
 1  1  3     5.1498990581e+00
 1  2  1    -5.0800507205e+00
 1  2  2     5.0800507205e+00
 1  2  3    -7.1131760929e+00
 1  3  1     5.0800507205e+00
 1  3  2    -7.1131760929e+00
 1  3  3     5.0800507205e+00
 2  1  1    -5.0800507205e+00
 2  1  2     5.0800507205e+00
 2  1  3    -7.1131760929e+00
 2  2  1     5.1498990581e+00
 2  2  2    -2.5168414792e+00
 2  2  3     5.1498990581e+00
 2  3  1    -7.1131760929e+00
 2  3  2     5.0800507205e+00
 2  3  3    -5.0800507205e+00
 3  1  1     5.0800507205e+00
 3  1  2    -7.1131760929e+00
 3  1  3     5.0800507205e+00
 3  2  1    -7.1131760929e+00
 3  2  2     5.0800507205e+00
 3  2  3    -5.0800507205e+00
 3  3  1     5.1498990581e+00
 3  3  2    -5.1498990581e+00
 3  3  3     2.5168414792e+00

   11
0.0000000000e+00 0.0000000000e+00 0.0000000000e+00
-2.8086414872e+00 2.8086414872e+00 0.0000000000e+00
     1      1      1
 1  1  1     1.3623610298e-01
 1  1  2    -1.9737904456e-01
 1  1  3     1.9006913702e-01
 1  2  1    -2.0531983275e-01
 1  2  2     2.0531983275e-01
 1  2  3    -1.2739276285e-01
 1  3  1     1.4852971028e-01
 1  3  2     1.2467320738e-01
 1  3  3     8.1279369460e-02
 2  1  1    -2.0531983275e-01
 2  1  2     2.0531983275e-01
 2  1  3    -1.2739276285e-01
 2  2  1     1.9737904456e-01
 2  2  2    -1.3623610298e-01
 2  2  3     1.9006913702e-01
 2  3  1     1.2467320738e-01
 2  3  2     1.4852971028e-01
 2  3  3    -8.1279369460e-02
 3  1  1     1.4852971028e-01
 3  1  2     1.2467320738e-01
 3  1  3     8.1279369460e-02
 3  2  1     1.2467320738e-01
 3  2  2     1.4852971028e-01
 3  2  3    -8.1279369460e-02
 3  3  1    -1.3265247727e-01
 3  3  2     1.3265247727e-01
 3  3  3     8.4633895650e-02

   12
0.0000000000e+00 0.0000000000e+00 0.0000000000e+00
-2.8086414872e+00 2.8086414872e+00 2.7755575616e-16
     1      1      2
 1  1  1    -4.0721292578e-02
 1  1  2    -2.0860070746e-02
 1  1  3     9.8681225176e-02
 1  2  1    -6.7071807814e-02
 1  2  2    -2.5687915684e-02
 1  2  3    -6.0650179192e-02
 1  3  1    -1.0732607252e-02
 1  3  2     1.5372732206e-02
 1  3  3     1.0732607252e-02
 2  1  1    -6.7071807814e-02
 2  1  2    -2.5687915684e-02
 2  1  3    -6.0650179192e-02
 2  2  1    -2.6611436924e-02
 2  2  2    -5.4955331680e-02
 2  2  3     2.6611436924e-02
 2  3  1    -6.0650179192e-02
 2  3  2     2.5687915684e-02
 2  3  3    -6.7071807814e-02
 3  1  1    -1.0732607252e-02
 3  1  2     1.5372732206e-02
 3  1  3     1.0732607252e-02
 3  2  1    -6.0650179192e-02
 3  2  2     2.5687915684e-02
 3  2  3    -6.7071807814e-02
 3  3  1    -9.8681225176e-02
 3  3  2    -2.0860070746e-02
 3  3  3     4.0721292578e-02

   13
0.0000000000e+00 0.0000000000e+00 0.0000000000e+00
-2.8086414872e+00 -2.8086414872e+00 -5.6172829743e+00
     1      1      2
 1  1  1    -4.0721292578e-02
 1  1  2    -9.8681225176e-02
 1  1  3     2.0860070746e-02
 1  2  1     1.0732607252e-02
 1  2  2     1.0732607252e-02
 1  2  3     1.5372732206e-02
 1  3  1     6.7071807814e-02
 1  3  2    -6.0650179192e-02
 1  3  3    -2.5687915684e-02
 2  1  1     1.0732607252e-02
 2  1  2     1.0732607252e-02
 2  1  3     1.5372732206e-02
 2  2  1    -9.8681225176e-02
 2  2  2    -4.0721292578e-02
 2  2  3     2.0860070746e-02
 2  3  1    -6.0650179192e-02
 2  3  2     6.7071807814e-02
 2  3  3    -2.5687915684e-02
 3  1  1     6.7071807814e-02
 3  1  2    -6.0650179192e-02
 3  1  3    -2.5687915684e-02
 3  2  1    -6.0650179192e-02
 3  2  2     6.7071807814e-02
 3  2  3    -2.5687915684e-02
 3  3  1    -2.6611436924e-02
 3  3  2    -2.6611436924e-02
 3  3  3     5.4955331680e-02

   14
0.0000000000e+00 0.0000000000e+00 0.0000000000e+00
2.8086414872e+00 2.8086414872e+00 0.0000000000e+00
     1      1      1
 1  1  1    -1.3623610298e-01
 1  1  2    -1.9737904456e-01
 1  1  3    -1.9006913702e-01
 1  2  1    -2.0531983275e-01
 1  2  2    -2.0531983275e-01
 1  2  3    -1.2739276285e-01
 1  3  1    -1.4852971028e-01
 1  3  2     1.2467320738e-01
 1  3  3    -8.1279369460e-02
 2  1  1    -2.0531983275e-01
 2  1  2    -2.0531983275e-01
 2  1  3    -1.2739276285e-01
 2  2  1    -1.9737904456e-01
 2  2  2    -1.3623610298e-01
 2  2  3    -1.9006913702e-01
 2  3  1     1.2467320738e-01
 2  3  2    -1.4852971028e-01
 2  3  3    -8.1279369460e-02
 3  1  1    -1.4852971028e-01
 3  1  2     1.2467320738e-01
 3  1  3    -8.1279369460e-02
 3  2  1     1.2467320738e-01
 3  2  2    -1.4852971028e-01
 3  2  3    -8.1279369460e-02
 3  3  1     1.3265247727e-01
 3  3  2     1.3265247727e-01
 3  3  3    -8.4633895650e-02

   15
0.0000000000e+00 0.0000000000e+00 0.0000000000e+00
2.8086414872e+00 0.0000000000e+00 -2.8086414872e+00
     1      1      1
 1  1  1    -1.3623610298e-01
 1  1  2     1.9006913702e-01
 1  1  3     1.9737904456e-01
 1  2  1     1.4852971028e-01
 1  2  2    -8.1279369460e-02
 1  2  3     1.2467320738e-01
 1  3  1     2.0531983275e-01
 1  3  2    -1.2739276285e-01
 1  3  3    -2.0531983275e-01
 2  1  1     1.4852971028e-01
 2  1  2    -8.1279369460e-02
 2  1  3     1.2467320738e-01
 2  2  1     1.3265247727e-01
 2  2  2     8.4633895650e-02
 2  2  3    -1.3265247727e-01
 2  3  1     1.2467320738e-01
 2  3  2     8.1279369460e-02
 2  3  3     1.4852971028e-01
 3  1  1     2.0531983275e-01
 3  1  2    -1.2739276285e-01
 3  1  3    -2.0531983275e-01
 3  2  1     1.2467320738e-01
 3  2  2     8.1279369460e-02
 3  2  3     1.4852971028e-01
 3  3  1    -1.9737904456e-01
 3  3  2     1.9006913702e-01
 3  3  3     1.3623610298e-01

   16
0.0000000000e+00 0.0000000000e+00 0.0000000000e+00
2.8086414872e+00 2.7755575616e-16 -2.8086414872e+00
     1      1      2
 1  1  1    -5.4955331680e-02
 1  1  2     2.6611436924e-02
 1  1  3    -2.6611436924e-02
 1  2  1     2.5687915684e-02
 1  2  2    -6.7071807814e-02
 1  2  3    -6.0650179192e-02
 1  3  1    -2.5687915684e-02
 1  3  2    -6.0650179192e-02
 1  3  3    -6.7071807814e-02
 2  1  1     2.5687915684e-02
 2  1  2    -6.7071807814e-02
 2  1  3    -6.0650179192e-02
 2  2  1    -2.0860070746e-02
 2  2  2     4.0721292578e-02
 2  2  3    -9.8681225176e-02
 2  3  1     1.5372732206e-02
 2  3  2     1.0732607252e-02
 2  3  3    -1.0732607252e-02
 3  1  1    -2.5687915684e-02
 3  1  2    -6.0650179192e-02
 3  1  3    -6.7071807814e-02
 3  2  1     1.5372732206e-02
 3  2  2     1.0732607252e-02
 3  2  3    -1.0732607252e-02
 3  3  1    -2.0860070746e-02
 3  3  2     9.8681225176e-02
 3  3  3    -4.0721292578e-02

   17
0.0000000000e+00 0.0000000000e+00 0.0000000000e+00
5.6172829743e+00 0.0000000000e+00 0.0000000000e+00
     1      1      1
 1  1  1     7.4490169350e-03
 1  1  2     0.0000000000e+00
 1  1  3     0.0000000000e+00
 1  2  1     0.0000000000e+00
 1  2  2     1.4616416095e-02
 1  2  3    -1.2367894313e-02
 1  3  1     0.0000000000e+00
 1  3  2    -1.2367894313e-02
 1  3  3     1.4616416095e-02
 2  1  1     0.0000000000e+00
 2  1  2     1.4616416095e-02
 2  1  3    -1.2367894313e-02
 2  2  1     1.0085305232e-02
 2  2  2     0.0000000000e+00
 2  2  3     0.0000000000e+00
 2  3  1    -5.7678055010e-03
 2  3  2     0.0000000000e+00
 2  3  3     0.0000000000e+00
 3  1  1     0.0000000000e+00
 3  1  2    -1.2367894313e-02
 3  1  3     1.4616416095e-02
 3  2  1    -5.7678055010e-03
 3  2  2     0.0000000000e+00
 3  2  3     0.0000000000e+00
 3  3  1     1.0085305232e-02
 3  3  2     0.0000000000e+00
 3  3  3     0.0000000000e+00

   18
0.0000000000e+00 0.0000000000e+00 0.0000000000e+00
0.0000000000e+00 2.8086414872e+00 -2.8086414872e+00
     1      1      1
 1  1  1     8.4633895650e-02
 1  1  2     1.3265247727e-01
 1  1  3    -1.3265247727e-01
 1  2  1    -8.1279369460e-02
 1  2  2     1.4852971028e-01
 1  2  3     1.2467320738e-01
 1  3  1     8.1279369460e-02
 1  3  2     1.2467320738e-01
 1  3  3     1.4852971028e-01
 2  1  1    -8.1279369460e-02
 2  1  2     1.4852971028e-01
 2  1  3     1.2467320738e-01
 2  2  1     1.9006913702e-01
 2  2  2    -1.3623610298e-01
 2  2  3     1.9737904456e-01
 2  3  1    -1.2739276285e-01
 2  3  2     2.0531983275e-01
 2  3  3    -2.0531983275e-01
 3  1  1     8.1279369460e-02
 3  1  2     1.2467320738e-01
 3  1  3     1.4852971028e-01
 3  2  1    -1.2739276285e-01
 3  2  2     2.0531983275e-01
 3  2  3    -2.0531983275e-01
 3  3  1     1.9006913702e-01
 3  3  2    -1.9737904456e-01
 3  3  3     1.3623610298e-01

   19
0.0000000000e+00 0.0000000000e+00 0.0000000000e+00
2.7755575616e-16 2.8086414872e+00 -2.8086414872e+00
     1      1      2
 1  1  1     4.0721292578e-02
 1  1  2    -2.0860070746e-02
 1  1  3    -9.8681225176e-02
 1  2  1    -6.7071807814e-02
 1  2  2     2.5687915684e-02
 1  2  3    -6.0650179192e-02
 1  3  1     1.0732607252e-02
 1  3  2     1.5372732206e-02
 1  3  3    -1.0732607252e-02
 2  1  1    -6.7071807814e-02
 2  1  2     2.5687915684e-02
 2  1  3    -6.0650179192e-02
 2  2  1     2.6611436924e-02
 2  2  2    -5.4955331680e-02
 2  2  3    -2.6611436924e-02
 2  3  1    -6.0650179192e-02
 2  3  2    -2.5687915684e-02
 2  3  3    -6.7071807814e-02
 3  1  1     1.0732607252e-02
 3  1  2     1.5372732206e-02
 3  1  3    -1.0732607252e-02
 3  2  1    -6.0650179192e-02
 3  2  2    -2.5687915684e-02
 3  2  3    -6.7071807814e-02
 3  3  1     9.8681225176e-02
 3  3  2    -2.0860070746e-02
 3  3  3    -4.0721292578e-02

   20
0.0000000000e+00 0.0000000000e+00 0.0000000000e+00
0.0000000000e+00 5.6172829743e+00 0.0000000000e+00
     1      1      1
 1  1  1     0.0000000000e+00
 1  1  2     1.0085305232e-02
 1  1  3     0.0000000000e+00
 1  2  1     1.4616416095e-02
 1  2  2     0.0000000000e+00
 1  2  3    -1.2367894313e-02
 1  3  1     0.0000000000e+00
 1  3  2    -5.7678055010e-03
 1  3  3     0.0000000000e+00
 2  1  1     1.4616416095e-02
 2  1  2     0.0000000000e+00
 2  1  3    -1.2367894313e-02
 2  2  1     0.0000000000e+00
 2  2  2     7.4490169350e-03
 2  2  3     0.0000000000e+00
 2  3  1    -1.2367894313e-02
 2  3  2     0.0000000000e+00
 2  3  3     1.4616416095e-02
 3  1  1     0.0000000000e+00
 3  1  2    -5.7678055010e-03
 3  1  3     0.0000000000e+00
 3  2  1    -1.2367894313e-02
 3  2  2     0.0000000000e+00
 3  2  3     1.4616416095e-02
 3  3  1     0.0000000000e+00
 3  3  2     1.0085305232e-02
 3  3  3     0.0000000000e+00

   21
0.0000000000e+00 0.0000000000e+00 0.0000000000e+00
0.0000000000e+00 0.0000000000e+00 -5.6172829743e+00
     1      1      1
 1  1  1     0.0000000000e+00
 1  1  2     0.0000000000e+00
 1  1  3    -1.0085305232e-02
 1  2  1     0.0000000000e+00
 1  2  2     0.0000000000e+00
 1  2  3    -5.7678055010e-03
 1  3  1    -1.4616416095e-02
 1  3  2    -1.2367894313e-02
 1  3  3     0.0000000000e+00
 2  1  1     0.0000000000e+00
 2  1  2     0.0000000000e+00
 2  1  3    -5.7678055010e-03
 2  2  1     0.0000000000e+00
 2  2  2     0.0000000000e+00
 2  2  3    -1.0085305232e-02
 2  3  1    -1.2367894313e-02
 2  3  2    -1.4616416095e-02
 2  3  3     0.0000000000e+00
 3  1  1    -1.4616416095e-02
 3  1  2    -1.2367894313e-02
 3  1  3     0.0000000000e+00
 3  2  1    -1.2367894313e-02
 3  2  2    -1.4616416095e-02
 3  2  3     0.0000000000e+00
 3  3  1     0.0000000000e+00
 3  3  2     0.0000000000e+00
 3  3  3    -7.4490169350e-03

   22
0.0000000000e+00 0.0000000000e+00 0.0000000000e+00
2.7755575616e-16 2.7755575616e-16 -5.6172829743e+00
     1      1      2
 1  1  1     4.0721292578e-02
 1  1  2     9.8681225176e-02
 1  1  3     2.0860070746e-02
 1  2  1    -1.0732607252e-02
 1  2  2    -1.0732607252e-02
 1  2  3     1.5372732206e-02
 1  3  1     6.7071807814e-02
 1  3  2    -6.0650179192e-02
 1  3  3     2.5687915684e-02
 2  1  1    -1.0732607252e-02
 2  1  2    -1.0732607252e-02
 2  1  3     1.5372732206e-02
 2  2  1     9.8681225176e-02
 2  2  2     4.0721292578e-02
 2  2  3     2.0860070746e-02
 2  3  1    -6.0650179192e-02
 2  3  2     6.7071807814e-02
 2  3  3     2.5687915684e-02
 3  1  1     6.7071807814e-02
 3  1  2    -6.0650179192e-02
 3  1  3     2.5687915684e-02
 3  2  1    -6.0650179192e-02
 3  2  2     6.7071807814e-02
 3  2  3     2.5687915684e-02
 3  3  1     2.6611436924e-02
 3  3  2     2.6611436924e-02
 3  3  3     5.4955331680e-02

   23
0.0000000000e+00 0.0000000000e+00 0.0000000000e+00
-2.8086414872e+00 -2.8086414872e+00 0.0000000000e+00
     1      1      1
 1  1  1     1.3623610298e-01
 1  1  2     1.9737904456e-01
 1  1  3    -1.9006913702e-01
 1  2  1     2.0531983275e-01
 1  2  2     2.0531983275e-01
 1  2  3    -1.2739276285e-01
 1  3  1    -1.4852971028e-01
 1  3  2     1.2467320738e-01
 1  3  3     8.1279369460e-02
 2  1  1     2.0531983275e-01
 2  1  2     2.0531983275e-01
 2  1  3    -1.2739276285e-01
 2  2  1     1.9737904456e-01
 2  2  2     1.3623610298e-01
 2  2  3    -1.9006913702e-01
 2  3  1     1.2467320738e-01
 2  3  2    -1.4852971028e-01
 2  3  3     8.1279369460e-02
 3  1  1    -1.4852971028e-01
 3  1  2     1.2467320738e-01
 3  1  3     8.1279369460e-02
 3  2  1     1.2467320738e-01
 3  2  2    -1.4852971028e-01
 3  2  3     8.1279369460e-02
 3  3  1    -1.3265247727e-01
 3  3  2    -1.3265247727e-01
 3  3  3    -8.4633895650e-02

   24
0.0000000000e+00 0.0000000000e+00 0.0000000000e+00
-2.8086414872e+00 -2.8086414872e+00 0.0000000000e+00
     1      1      2
 1  1  1     2.5168414792e+00
 1  1  2     5.1498990581e+00
 1  1  3    -5.1498990581e+00
 1  2  1     5.0800507205e+00
 1  2  2     5.0800507205e+00
 1  2  3    -7.1131760929e+00
 1  3  1    -5.0800507205e+00
 1  3  2    -7.1131760929e+00
 1  3  3     5.0800507205e+00
 2  1  1     5.0800507205e+00
 2  1  2     5.0800507205e+00
 2  1  3    -7.1131760929e+00
 2  2  1     5.1498990581e+00
 2  2  2     2.5168414792e+00
 2  2  3    -5.1498990581e+00
 2  3  1    -7.1131760929e+00
 2  3  2    -5.0800507205e+00
 2  3  3     5.0800507205e+00
 3  1  1    -5.0800507205e+00
 3  1  2    -7.1131760929e+00
 3  1  3     5.0800507205e+00
 3  2  1    -7.1131760929e+00
 3  2  2    -5.0800507205e+00
 3  2  3     5.0800507205e+00
 3  3  1     5.1498990581e+00
 3  3  2     5.1498990581e+00
 3  3  3    -2.5168414792e+00

   25
0.0000000000e+00 0.0000000000e+00 0.0000000000e+00
-2.8086414872e+00 0.0000000000e+00 2.8086414872e+00
     1      1      1
 1  1  1     1.3623610298e-01
 1  1  2     1.9006913702e-01
 1  1  3    -1.9737904456e-01
 1  2  1     1.4852971028e-01
 1  2  2     8.1279369460e-02
 1  2  3     1.2467320738e-01
 1  3  1    -2.0531983275e-01
 1  3  2    -1.2739276285e-01
 1  3  3     2.0531983275e-01
 2  1  1     1.4852971028e-01
 2  1  2     8.1279369460e-02
 2  1  3     1.2467320738e-01
 2  2  1    -1.3265247727e-01
 2  2  2     8.4633895650e-02
 2  2  3     1.3265247727e-01
 2  3  1     1.2467320738e-01
 2  3  2    -8.1279369460e-02
 2  3  3     1.4852971028e-01
 3  1  1    -2.0531983275e-01
 3  1  2    -1.2739276285e-01
 3  1  3     2.0531983275e-01
 3  2  1     1.2467320738e-01
 3  2  2    -8.1279369460e-02
 3  2  3     1.4852971028e-01
 3  3  1     1.9737904456e-01
 3  3  2     1.9006913702e-01
 3  3  3    -1.3623610298e-01

   26
0.0000000000e+00 0.0000000000e+00 0.0000000000e+00
-2.8086414872e+00 2.7755575616e-16 2.8086414872e+00
     1      1      2
 1  1  1    -4.0721292578e-02
 1  1  2     9.8681225176e-02
 1  1  3    -2.0860070746e-02
 1  2  1    -1.0732607252e-02
 1  2  2     1.0732607252e-02
 1  2  3     1.5372732206e-02
 1  3  1    -6.7071807814e-02
 1  3  2    -6.0650179192e-02
 1  3  3    -2.5687915684e-02
 2  1  1    -1.0732607252e-02
 2  1  2     1.0732607252e-02
 2  1  3     1.5372732206e-02
 2  2  1    -9.8681225176e-02
 2  2  2     4.0721292578e-02
 2  2  3    -2.0860070746e-02
 2  3  1    -6.0650179192e-02
 2  3  2    -6.7071807814e-02
 2  3  3     2.5687915684e-02
 3  1  1    -6.7071807814e-02
 3  1  2    -6.0650179192e-02
 3  1  3    -2.5687915684e-02
 3  2  1    -6.0650179192e-02
 3  2  2    -6.7071807814e-02
 3  2  3     2.5687915684e-02
 3  3  1    -2.6611436924e-02
 3  3  2     2.6611436924e-02
 3  3  3    -5.4955331680e-02

   27
0.0000000000e+00 0.0000000000e+00 0.0000000000e+00
-2.8086414872e+00 -5.6172829743e+00 -2.8086414872e+00
     1      1      2
 1  1  1    -4.0721292578e-02
 1  1  2     2.0860070746e-02
 1  1  3    -9.8681225176e-02
 1  2  1     6.7071807814e-02
 1  2  2    -2.5687915684e-02
 1  2  3    -6.0650179192e-02
 1  3  1     1.0732607252e-02
 1  3  2     1.5372732206e-02
 1  3  3     1.0732607252e-02
 2  1  1     6.7071807814e-02
 2  1  2    -2.5687915684e-02
 2  1  3    -6.0650179192e-02
 2  2  1    -2.6611436924e-02
 2  2  2     5.4955331680e-02
 2  2  3    -2.6611436924e-02
 2  3  1    -6.0650179192e-02
 2  3  2    -2.5687915684e-02
 2  3  3     6.7071807814e-02
 3  1  1     1.0732607252e-02
 3  1  2     1.5372732206e-02
 3  1  3     1.0732607252e-02
 3  2  1    -6.0650179192e-02
 3  2  2    -2.5687915684e-02
 3  2  3     6.7071807814e-02
 3  3  1    -9.8681225176e-02
 3  3  2     2.0860070746e-02
 3  3  3    -4.0721292578e-02

   28
0.0000000000e+00 0.0000000000e+00 0.0000000000e+00
0.0000000000e+00 -2.8086414872e+00 2.8086414872e+00
     1      1      1
 1  1  1     8.4633895650e-02
 1  1  2    -1.3265247727e-01
 1  1  3     1.3265247727e-01
 1  2  1     8.1279369460e-02
 1  2  2     1.4852971028e-01
 1  2  3     1.2467320738e-01
 1  3  1    -8.1279369460e-02
 1  3  2     1.2467320738e-01
 1  3  3     1.4852971028e-01
 2  1  1     8.1279369460e-02
 2  1  2     1.4852971028e-01
 2  1  3     1.2467320738e-01
 2  2  1     1.9006913702e-01
 2  2  2     1.3623610298e-01
 2  2  3    -1.9737904456e-01
 2  3  1    -1.2739276285e-01
 2  3  2    -2.0531983275e-01
 2  3  3     2.0531983275e-01
 3  1  1    -8.1279369460e-02
 3  1  2     1.2467320738e-01
 3  1  3     1.4852971028e-01
 3  2  1    -1.2739276285e-01
 3  2  2    -2.0531983275e-01
 3  2  3     2.0531983275e-01
 3  3  1     1.9006913702e-01
 3  3  2     1.9737904456e-01
 3  3  3    -1.3623610298e-01

   29
0.0000000000e+00 0.0000000000e+00 0.0000000000e+00
2.7755575616e-16 -2.8086414872e+00 2.8086414872e+00
     1      1      2
 1  1  1     4.0721292578e-02
 1  1  2    -9.8681225176e-02
 1  1  3    -2.0860070746e-02
 1  2  1     1.0732607252e-02
 1  2  2    -1.0732607252e-02
 1  2  3     1.5372732206e-02
 1  3  1    -6.7071807814e-02
 1  3  2    -6.0650179192e-02
 1  3  3     2.5687915684e-02
 2  1  1     1.0732607252e-02
 2  1  2    -1.0732607252e-02
 2  1  3     1.5372732206e-02
 2  2  1     9.8681225176e-02
 2  2  2    -4.0721292578e-02
 2  2  3    -2.0860070746e-02
 2  3  1    -6.0650179192e-02
 2  3  2    -6.7071807814e-02
 2  3  3    -2.5687915684e-02
 3  1  1    -6.7071807814e-02
 3  1  2    -6.0650179192e-02
 3  1  3     2.5687915684e-02
 3  2  1    -6.0650179192e-02
 3  2  2    -6.7071807814e-02
 3  2  3    -2.5687915684e-02
 3  3  1     2.6611436924e-02
 3  3  2    -2.6611436924e-02
 3  3  3    -5.4955331680e-02

   30
0.0000000000e+00 0.0000000000e+00 0.0000000000e+00
0.0000000000e+00 0.0000000000e+00 5.6172829743e+00
     1      1      1
 1  1  1     0.0000000000e+00
 1  1  2     0.0000000000e+00
 1  1  3     1.0085305232e-02
 1  2  1     0.0000000000e+00
 1  2  2     0.0000000000e+00
 1  2  3    -5.7678055010e-03
 1  3  1     1.4616416095e-02
 1  3  2    -1.2367894313e-02
 1  3  3     0.0000000000e+00
 2  1  1     0.0000000000e+00
 2  1  2     0.0000000000e+00
 2  1  3    -5.7678055010e-03
 2  2  1     0.0000000000e+00
 2  2  2     0.0000000000e+00
 2  2  3     1.0085305232e-02
 2  3  1    -1.2367894313e-02
 2  3  2     1.4616416095e-02
 2  3  3     0.0000000000e+00
 3  1  1     1.4616416095e-02
 3  1  2    -1.2367894313e-02
 3  1  3     0.0000000000e+00
 3  2  1    -1.2367894313e-02
 3  2  2     1.4616416095e-02
 3  2  3     0.0000000000e+00
 3  3  1     0.0000000000e+00
 3  3  2     0.0000000000e+00
 3  3  3     7.4490169350e-03

   31
0.0000000000e+00 0.0000000000e+00 0.0000000000e+00
0.0000000000e+00 -5.6172829743e+00 0.0000000000e+00
     1      1      1
 1  1  1     0.0000000000e+00
 1  1  2    -1.0085305232e-02
 1  1  3     0.0000000000e+00
 1  2  1    -1.4616416095e-02
 1  2  2     0.0000000000e+00
 1  2  3    -1.2367894313e-02
 1  3  1     0.0000000000e+00
 1  3  2    -5.7678055010e-03
 1  3  3     0.0000000000e+00
 2  1  1    -1.4616416095e-02
 2  1  2     0.0000000000e+00
 2  1  3    -1.2367894313e-02
 2  2  1     0.0000000000e+00
 2  2  2    -7.4490169350e-03
 2  2  3     0.0000000000e+00
 2  3  1    -1.2367894313e-02
 2  3  2     0.0000000000e+00
 2  3  3    -1.4616416095e-02
 3  1  1     0.0000000000e+00
 3  1  2    -5.7678055010e-03
 3  1  3     0.0000000000e+00
 3  2  1    -1.2367894313e-02
 3  2  2     0.0000000000e+00
 3  2  3    -1.4616416095e-02
 3  3  1     0.0000000000e+00
 3  3  2    -1.0085305232e-02
 3  3  3     0.0000000000e+00

   32
0.0000000000e+00 0.0000000000e+00 0.0000000000e+00
2.7755575616e-16 -5.6172829743e+00 2.7755575616e-16
     1      1      2
 1  1  1     4.0721292578e-02
 1  1  2     2.0860070746e-02
 1  1  3     9.8681225176e-02
 1  2  1     6.7071807814e-02
 1  2  2     2.5687915684e-02
 1  2  3    -6.0650179192e-02
 1  3  1    -1.0732607252e-02
 1  3  2     1.5372732206e-02
 1  3  3    -1.0732607252e-02
 2  1  1     6.7071807814e-02
 2  1  2     2.5687915684e-02
 2  1  3    -6.0650179192e-02
 2  2  1     2.6611436924e-02
 2  2  2     5.4955331680e-02
 2  2  3     2.6611436924e-02
 2  3  1    -6.0650179192e-02
 2  3  2     2.5687915684e-02
 2  3  3     6.7071807814e-02
 3  1  1    -1.0732607252e-02
 3  1  2     1.5372732206e-02
 3  1  3    -1.0732607252e-02
 3  2  1    -6.0650179192e-02
 3  2  2     2.5687915684e-02