 1036

    1
0.0000000000e+00 0.0000000000e+00 0.0000000000e+00
0.0000000000e+00 0.0000000000e+00 0.0000000000e+00
     1      1      1
 1  1  1     1.8681039326e+01
 1  1  2     0.0000000000e+00
 1  1  3    -1.2115558791e+00
 1  2  1     0.0000000000e+00
 1  2  2     3.2585756682e+01
 1  2  3     0.0000000000e+00
 1  3  1    -1.2115558791e+00
 1  3  2     0.0000000000e+00
 1  3  3    -1.7863063400e+01
 2  1  1     0.0000000000e+00
 2  1  2     3.2585756682e+01
 2  1  3     0.0000000000e+00
 2  2  1     3.2585756682e+01
 2  2  2     0.0000000000e+00
 2  2  3    -9.8269825541e-01
 2  3  1     0.0000000000e+00
 2  3  2    -9.8269825541e-01
 2  3  3     0.0000000000e+00
 3  1  1    -1.2115558791e+00
 3  1  2     0.0000000000e+00
 3  1  3    -1.7863063400e+01
 3  2  1     0.0000000000e+00
 3  2  2    -9.8269825541e-01
 3  2  3     0.0000000000e+00
 3  3  1    -1.7863063400e+01
 3  3  2     0.0000000000e+00
 3  3  3    -2.8230686700e+01

    2
0.0000000000e+00 0.0000000000e+00 0.0000000000e+00
0.0000000000e+00 0.0000000000e+00 0.0000000000e+00
     1      1      2
 1  1  1     4.9236235864e-01
 1  1  2     0.0000000000e+00
 1  1  3     9.0666179535e-01
 1  2  1     0.0000000000e+00
 1  2  2    -6.0580211911e-01
 1  2  3     0.0000000000e+00
 1  3  1     2.6346321767e+00
 1  3  2     0.0000000000e+00
 1  3  3     1.3671421897e+01
 2  1  1     0.0000000000e+00
 2  1  2    -6.0580211911e-01
 2  1  3     0.0000000000e+00
 2  2  1    -4.0788186443e-01
 2  2  2     0.0000000000e+00
 2  2  3    -1.0773589074e+00
 2  3  1     0.0000000000e+00
 2  3  2    -1.1494746942e+00
 2  3  3     0.0000000000e+00
 3  1  1     2.6346321767e+00
 3  1  2     0.0000000000e+00
 3  1  3     1.3671421897e+01
 3  2  1     0.0000000000e+00
 3  2  2    -1.1494746942e+00
 3  2  3     0.0000000000e+00
 3  3  1     1.3245275346e+01
 3  3  2     0.0000000000e+00
 3  3  3     2.7884999942e+01

    3
0.0000000000e+00 0.0000000000e+00 0.0000000000e+00
0.0000000000e+00 0.0000000000e+00 0.0000000000e+00
     1      1      3
 1  1  1    -5.1069955469e-01
 1  1  2    -3.7510435744e-01
 1  1  3    -7.8776603697e-02
 1  2  1    -9.4651972100e-01
 1  2  2    -7.4589012188e-01
 1  2  3     1.0664412616e-01
 1  3  1     2.9832153307e-01
 1  3  2     3.4000059716e-01
 1  3  3    -5.1013784078e-01
 2  1  1    -9.4651972100e-01
 2  1  2    -7.4589012188e-01
 2  1  3     1.0664412616e-01
 2  2  1    -7.3337204193e-01
 2  2  2    -8.6406128939e-02
 2  2  3    -1.1508771952e-01
 2  3  1     3.9528709796e-01
 2  3  2     5.4201247942e-01
 2  3  3    -8.4930711789e-02
 3  1  1     2.9832153307e-01
 3  1  2     3.4000059716e-01
 3  1  3    -5.1013784078e-01
 3  2  1     3.9528709796e-01
 3  2  2     5.4201247942e-01
 3  2  3    -8.4930711789e-02
 3  3  1    -4.6153359624e-01
 3  3  2    -3.1761505805e-02
 3  3  3     9.0543251997e-02

    4
0.0000000000e+00 0.0000000000e+00 0.0000000000e+00
0.0000000000e+00 0.0000000000e+00 0.0000000000e+00
     1      1      4
 1  1  1     3.5388942345e-01
 1  1  2     5.2517945926e-02
 1  1  3    -2.0840145692e-01
 1  2  1    -8.2441963798e-02
 1  2  2     7.3118849517e-02
 1  2  3     5.8529054899e-02
 1  3  1     5.0333335374e-02
 1  3  2    -4.3822303252e-02
 1  3  3    -1.9975262343e-01
 2  1  1    -8.2441963798e-02
 2  1  2     7.3118849517e-02
 2  1  3     5.8529054899e-02
 2  2  1     2.5101165229e-01
 2  2  2     4.9575000000e-02
 2  2  3    -5.2763145933e-02
 2  3  1     4.0823056243e-02
 2  3  2    -3.4460499966e-02
 2  3  3     3.0896916268e-01
 3  1  1     5.0333335374e-02
 3  1  2    -4.3822303252e-02
 3  1  3    -1.9975262343e-01
 3  2  1     4.0823056243e-02
 3  2  2    -3.4460499966e-02
 3  2  3     3.0896916268e-01
 3  3  1     7.2216629331e-02
 3  3  2     1.5609169904e-01
 3  3  3    -1.9955790583e-02

    5
0.0000000000e+00 0.0000000000e+00 0.0000000000e+00
4.6663788614e+00 0.0000000000e+00 0.0000000000e+00
     1      1      1
 1  1  1     1.1125907344e-01
 1  1  2     0.0000000000e+00
 1  1  3    -1.7772725438e-02
 1  2  1     0.0000000000e+00
 1  2  2    -6.8441257912e-02
 1  2  3     0.0000000000e+00
 1  3  1     6.4118681432e-02
 1  3  2     0.0000000000e+00
 1  3  3     3.5075851321e-02
 2  1  1     0.0000000000e+00
 2  1  2    -6.8441257912e-02
 2  1  3     0.0000000000e+00
 2  2  1    -2.9870700772e-02
 2  2  2     0.0000000000e+00
 2  2  3     1.0641200307e-01
 2  3  1     0.0000000000e+00
 2  3  2     3.6093364622e-03
 2  3  3     0.0000000000e+00
 3  1  1     6.4118681432e-02
 3  1  2     0.0000000000e+00
 3  1  3     3.5075851321e-02
 3  2  1     0.0000000000e+00
 3  2  2     3.6093364622e-03
 3  2  3     0.0000000000e+00
 3  3  1     5.2171424474e-02
 3  3  2     0.0000000000e+00
 3  3  3     2.3059112784e-02

    6
0.0000000000e+00 0.0000000000e+00 0.0000000000e+00
4.6663788614e+00 0.0000000000e+00 0.0000000000e+00
     1      1      2
 1  1  1     3.7321083126e-01
 1  1  2     0.0000000000e+00
 1  1  3    -1.5733134387e-01
 1  2  1     0.0000000000e+00
 1  2  2    -1.0948451787e-01
 1  2  3     0.0000000000e+00
 1  3  1    -2.0818320374e-01
 1  3  2     0.0000000000e+00
 1  3  3     2.2342029177e-01
 2  1  1     0.0000000000e+00
 2  1  2    -1.0948451787e-01
 2  1  3     0.0000000000e+00
 2  2  1     2.1363424768e-01
 2  2  2     0.0000000000e+00
 2  2  3     7.0499704790e-02
 2  3  1     0.0000000000e+00
 2  3  2     3.8202099553e-02
 2  3  3     0.0000000000e+00
 3  1  1    -2.0818320374e-01
 3  1  2     0.0000000000e+00
 3  1  3     2.2342029177e-01
 3  2  1     0.0000000000e+00
 3  2  2     3.8202099553e-02
 3  2  3     0.0000000000e+00
 3  3  1     2.7953538824e-01
 3  3  2     0.0000000000e+00
 3  3  3    -3.0549748307e-02

    7
0.0000000000e+00 0.0000000000e+00 0.0000000000e+00
4.6663788614e+00 0.0000000000e+00 0.0000000000e+00
     1      1      4
 1  1  1    -9.8886611158e+00
 1  1  2    -1.2686320729e+01
 1  1  3    -2.1994063470e-01
 1  2  1    -1.3059468627e+01
 1  2  2    -1.5307589692e+01
 1  2  3     6.3926609261e-01
 1  3  1    -1.1321614718e+00
 1  3  2    -5.8607577487e-01
 1  3  3     2.5527096994e+00
 2  1  1    -1.3059468627e+01
 2  1  2    -1.5307589692e+01
 2  1  3     6.3926609261e-01
 2  2  1    -1.5460706339e+01
 2  2  2    -1.4097650000e+01
 2  2  3     6.5225597015e-01
 2  3  1     4.4887235900e-01
 2  3  2     2.4225588640e-01
 2  3  3     1.4197495108e+00
 3  1  1    -1.1321614718e+00
 3  1  2    -5.8607577487e-01
 3  1  3     2.5527096994e+00
 3  2  1     4.4887235900e-01
 3  2  2     2.4225588640e-01
 3  2  3     1.4197495108e+00
 3  3  1     2.8887030395e+00
 3  3  2     2.3427690809e+00
 3  3  3    -4.0615902554e-02

    8
0.0000000000e+00 0.0000000000e+00 0.0000000000e+00
-4.6663788614e+00 0.0000000000e+00 0.0000000000e+00
     1      1      1
 1  1  1    -2.8427671756e-01
 1  1  2     0.0000000000e+00
 1  1  3     1.2417422274e-02
 1  2  1     0.0000000000e+00
 1  2  2     1.5379695224e-02
 1  2  3     0.0000000000e+00
 1  3  1    -8.2827020510e-04
 1  3  2     0.0000000000e+00
 1  3  3     5.0045024571e-02
 2  1  1     0.0000000000e+00
 2  1  2     1.5379695224e-02
 2  1  3     0.0000000000e+00
 2  2  1    -1.8034218624e-01
 2  2  2     0.0000000000e+00
 2  2  3     1.1962129120e-01
 2  3  1     0.0000000000e+00
 2  3  2     5.7166449693e-02
 2  3  3     0.0000000000e+00
 3  1  1    -8.2827020510e-04
 3  1  2     0.0000000000e+00
 3  1  3     5.0045024571e-02
 3  2  1     0.0000000000e+00
 3  2  2     5.7166449693e-02
 3  2  3     0.0000000000e+00
 3  3  1    -1.8005451896e-01
 3  3  2     0.0000000000e+00
 3  3  3    -1.5490299884e-03

    9
0.0000000000e+00 0.0000000000e+00 0.0000000000e+00
-4.6663788614e+00 0.0000000000e+00 0.0000000000e+00
     1      1      3
 1  1  1     6.7547782053e-01
 1  1  2    -3.0649379783e-01
 1  1  3     7.2842183675e-01
 1  2  1    -4.7329974323e-02
 1  2  2     3.2160681243e-01
 1  2  3    -3.3316054438e-01
 1  3  1     1.8598376826e-01
 1  3  2    -1.1747149790e-01
 1  3  3     3.9267677703e-01
 2  1  1    -4.7329974323e-02
 2  1  2     3.2160681243e-01
 2  1  3    -3.3316054438e-01
 2  2  1     2.7565663162e-01
 2  2  2     2.1769233499e-01
 2  2  3     3.2896792102e-01
 2  3  1    -8.6753551670e-02
 2  3  2     1.2617005272e-01
 2  3  3    -4.8198810192e-01
 3  1  1     1.8598376826e-01
 3  1  2    -1.1747149790e-01
 3  1  3     3.9267677703e-01
 3  2  1    -8.6753551670e-02
 3  2  2     1.2617005272e-01
 3  2  3    -4.8198810192e-01
 3  3  1     1.4345296203e-01
 3  3  2     3.0642440905e-01
 3  3  3     2.5169781744e-01

   10
0.0000000000e+00 0.0000000000e+00 0.0000000000e+00
0.0000000000e+00 3.2986597698e+00 0.0000000000e+00
     1      1      1
 1  1  1     1.3984723211e-01
 1  1  2     1.6151069975e-01
 1  1  3    -3.1449658271e-01
 1  2  1    -3.8799894661e-02
 1  2  2    -2.6883456264e-01
 1  2  3    -5.6403993314e-01
 1  3  1    -3.2726081559e-02
 1  3  2     6.0450749857e-03
 1  3  3    -1.2734277628e-01
 2  1  1    -3.8799894661e-02
 2  1  2    -2.6883456264e-01
 2  1  3    -5.6403993314e-01
 2  2  1    -4.5399862971e-01
 2  2  2    -9.6120000000e-01
 2  2  3    -8.2313103298e-02
 2  3  1    -2.2102381143e-01
 2  3  2     3.1994679138e-02
 2  3  3     9.3716496277e-02
 3  1  1    -3.2726081559e-02
 3  1  2     6.0450749857e-03
 3  1  3    -1.2734277628e-01
 3  2  1    -2.2102381143e-01
 3  2  2     3.1994679138e-02
 3  2  3     9.3716496277e-02
 3  3  1    -2.3271789323e-01
 3  3  2     5.4473393185e-02
 3  3  3     1.7283069606e-02

   11
0.0000000000e+00 0.0000000000e+00 0.0000000000e+00
0.0000000000e+00 3.2986597698e+00 0.0000000000e+00
     1      1      2
 1  1  1    -6.8547581858e-02
 1  1  2     2.3020830668e-01
 1  1  3    -6.2449173780e-02
 1  2  1    -1.8947088736e-01
 1  2  2     1.7117138765e-01
 1  2  3     3.0001368207e-02
 1  3  1    -1.3518352909e-01
 1  3  2    -1.3232837398e-02
 1  3  3     1.3718070246e-02
 2  1  1    -1.8947088736e-01
 2  1  2     1.7117138765e-01
 2  1  3     3.0001368207e-02
 2  2  1    -4.2172661854e-03
 2  2  2     1.4292500000e-01
 2  2  3     4.2521910999e-02
 2  3  1    -5.2113177575e-02
 2  3  2     8.2329189093e-02
 2  3  3    -3.1144064309e-02
 3  1  1    -1.3518352909e-01
 3  1  2    -1.3232837398e-02
 3  1  3     1.3718070246e-02
 3  2  1    -5.2113177575e-02
 3  2  2     8.2329189093e-02
 3  2  3    -3.1144064309e-02
 3  3  1    -5.3840621191e-02
 3  3  2    -3.5213994397e-02
 3  3  3    -1.5813650985e-01

   12
0.0000000000e+00 0.0000000000e+00 0.0000000000e+00
4.6663788614e+00 3.2986597698e+00 0.0000000000e+00
     1      1      2
 1  1  1    -1.4249895505e-02
 1  1  2    -2.9823393398e-01
 1  1  3     2.7248965265e-01
 1  2  1    -1.6264668932e-01
 1  2  2    -1.0520461671e-01
 1  2  3     3.2526953098e-01
 1  3  1     8.8705737628e-02
 1  3  2     1.4311035683e-01
 1  3  3    -8.9055956891e-02
 2  1  1    -1.6264668932e-01
 2  1  2    -1.0520461671e-01
 2  1  3     3.2526953098e-01
 2  2  1     5.3110707272e-02
 2  2  2    -1.6750000000e-01
 2  2  3     1.0649179062e-01
 2  3  1     1.7356934273e-01
 2  3  2     6.0578836744e-02
 2  3  3    -1.1090567716e-01
 3  1  1     8.8705737628e-02
 3  1  2     1.4311035683e-01
 3  1  3    -8.9055956891e-02
 3  2  1     1.7356934273e-01
 3  2  2     6.0578836744e-02
 3  2  3    -1.1090567716e-01
 3  3  1    -6.5966042881e-03
 3  3  2    -1.1875397456e-01
 3  3  3     1.0425058618e-02

   13
0.0000000000e+00 0.0000000000e+00 0.0000000000e+00
4.6663788614e+00 3.2986597698e+00 0.0000000000e+00
     1      1      4
 1  1  1    -3.7385304915e-01
 1  1  2     9.8334571405e-03
 1  1  3     1.1694002518e-01
 1  2  1    -5.2082748535e-03
 1  2  2    -4.7080271251e-02
 1  2  3     2.2409795485e-02
 1  3  1     3.7635754369e-02
 1  3  2     3.3429130841e-02
 1  3  3    -9.1263089125e-02
 2  1  1    -5.2082748535e-03
 2  1  2    -4.7080271251e-02
 2  1  3     2.2409795485e-02
 2  2  1    -1.8149789458e-02
 2  2  2    -2.5017500000e-01
 2  2  3     1.6810439509e-03
 2  3  1     3.9638183825e-02
 2  3  2    -3.4278141201e-02
 2  3  3    -4.8882728034e-02
 3  1  1     3.7635754369e-02
 3  1  2     3.3429130841e-02
 3  1  3    -9.1263089125e-02
 3  2  1     3.9638183825e-02
 3  2  2    -3.4278141201e-02
 3  2  3    -4.8882728034e-02
 3  3  1    -1.1662032907e-01
 3  3  2     1.7802440105e-02
 3  3  3     2.6122216076e-02

   14
0.0000000000e+00 0.0000000000e+00 0.0000000000e+00
4.6663788614e+00 -6.5973195395e+00 0.0000000000e+00
     1      1      4
 1  1  1    -3.7385304915e-01
 1  1  2    -9.8334571405e-03
 1  1  3     1.1694002518e-01
 1  2  1     5.2082748535e-03
 1  2  2    -4.7080271251e-02
 1  2  3    -2.2409795485e-02
 1  3  1     3.7635754369e-02
 1  3  2    -3.3429130841e-02
 1  3  3    -9.1263089125e-02
 2  1  1     5.2082748535e-03
 2  1  2    -4.7080271251e-02
 2  1  3    -2.2409795485e-02
 2  2  1    -1.8149789458e-02
 2  2  2     2.5017500000e-01
 2  2  3     1.6810439509e-03
 2  3  1    -3.9638183825e-02
 2  3  2    -3.4278141201e-02
 2  3  3     4.8882728034e-02
 3  1  1     3.7635754369e-02
 3  1  2    -3.3429130841e-02
 3  1  3    -9.1263089125e-02
 3  2  1    -3.9638183825e-02
 3  2  2    -3.4278141201e-02
 3  2  3     4.8882728034e-02
 3  3  1    -1.1662032907e-01
 3  3  2    -1.7802440105e-02
 3  3  3     2.6122216076e-02

   15
0.0000000000e+00 0.0000000000e+00 0.0000000000e+00
0.0000000000e+00 -3.2986597698e+00 0.0000000000e+00
     1      1      1
 1  1  1     1.3984723211e-01
 1  1  2    -1.6151069975e-01
 1  1  3    -3.1449658271e-01
 1  2  1     3.8799894661e-02
 1  2  2    -2.6883456264e-01
 1  2  3     5.6403993314e-01
 1  3  1    -3.2726081559e-02
 1  3  2    -6.0450749857e-03
 1  3  3    -1.2734277628e-01
 2  1  1     3.8799894661e-02
 2  1  2    -2.6883456264e-01
 2  1  3     5.6403993314e-01
 2  2  1    -4.5399862971e-01
 2  2  2     9.6120000000e-01
 2  2  3    -8.2313103298e-02
 2  3  1     2.2102381143e-01
 2  3  2     3.1994679138e-02
 2  3  3    -9.3716496277e-02
 3  1  1    -3.2726081559e-02
 3  1  2    -6.0450749857e-03
 3  1  3    -1.2734277628e-01
 3  2  1     2.2102381143e-01
 3  2  2     3.1994679138e-02
 3  2  3    -9.3716496277e-02
 3  3  1    -2.3271789323e-01
 3  3  2    -5.4473393185e-02
 3  3  3     1.7283069606e-02

   16
0.0000000000e+00 0.0000000000e+00 0.0000000000e+00
0.0000000000e+00 -3.2986597698e+00 0.0000000000e+00
     1      1      2
 1  1  1    -6.8547581858e-02
 1  1  2    -2.3020830668e-01
 1  1  3    -6.2449173780e-02
 1  2  1     1.8947088736e-01
 1  2  2     1.7117138765e-01
 1  2  3    -3.0001368207e-02
 1  3  1    -1.3518352909e-01
 1  3  2     1.3232837398e-02
 1  3  3     1.3718070246e-02
 2  1  1     1.8947088736e-01
 2  1  2     1.7117138765e-01
 2  1  3    -3.0001368207e-02
 2  2  1    -4.2172661854e-03
 2  2  2    -1.4292500000e-01
 2  2  3     4.2521910999e-02
 2  3  1     5.2113177575e-02
 2  3  2     8.2329189093e-02
 2  3  3     3.1144064309e-02
 3  1  1    -1.3518352909e-01
 3  1  2     1.3232837398e-02
 3  1  3     1.3718070246e-02
 3  2  1     5.2113177575e-02
 3  2  2     8.2329189093e-02
 3  2  3     3.1144064309e-02
 3  3  1    -5.3840621191e-02
 3  3  2     3.5213994397e-02
 3  3  3    -1.5813650985e-01

   17
0.0000000000e+00 0.0000000000e+00 0.0000000000e+00
0.0000000000e+00 -3.2986597698e+00 0.0000000000e+00
     1      1      3
 1  1  1    -5.1069955469e-01
 1  1  2     3.7510435744e-01
 1  1  3    -7.8776603697e-02
 1  2  1     9.4651972100e-01
 1  2  2    -7.4589012188e-01
 1  2  3    -1.0664412616e-01
 1  3  1     2.9832153307e-01
 1  3  2    -3.4000059716e-01
 1  3  3    -5.1013784078e-01
 2  1  1     9.4651972100e-01
 2  1  2    -7.4589012188e-01
 2  1  3    -1.0664412616e-01
 2  2  1    -7.3337204193e-01
 2  2  2     8.6406128939e-02
 2  2  3    -1.1508771952e-01
 2  3  1    -3.9528709796e-01
 2  3  2     5.4201247942e-01
 2  3  3     8.4930711789e-02
 3  1  1     2.9832153307e-01
 3  1  2    -3.4000059716e-01
 3  1  3    -5.1013784078e-01
 3  2  1    -3.9528709796e-01
 3  2  2     5.4201247942e-01
 3  2  3     8.4930711789e-02
 3  3  1    -4.6153359624e-01
 3  3  2     3.1761505805e-02
 3  3  3     9.0543251997e-02

   18
0.0000000000e+00 0.0000000000e+00 0.0000000000e+00
0.0000000000e+00 -3.2986597698e+00 0.0000000000e+00
     1      1      4
 1  1  1     3.5388942345e-01
 1  1  2    -5.2517945926e-02
 1  1  3    -2.0840145692e-01
 1  2  1     8.2441963798e-02
 1  2  2     7.3118849517e-02
 1  2  3    -5.8529054899e-02
 1  3  1     5.0333335374e-02
 1  3  2     4.3822303252e-02
 1  3  3    -1.9975262343e-01
 2  1  1     8.2441963798e-02
 2  1  2     7.3118849517e-02
 2  1  3    -5.8529054899e-02
 2  2  1     2.5101165229e-01
 2  2  2    -4.9575000000e-02
 2  2  3    -5.2763145933e-02
 2  3  1    -4.0823056243e-02
 2  3  2    -3.4460499966e-02
 2  3  3    -3.0896916268e-01
 3  1  1     5.0333335374e-02
 3  1  2     4.3822303252e-02
 3  1  3    -1.9975262343e-01
 3  2  1    -4.0823056243e-02
 3  2  2    -3.4460499966e-02
 3  2  3    -3.0896916268e-01
 3  3  1     7.2216629331e-02
 3  3  2    -1.5609169904e-01
 3  3  3    -1.9955790583e-02

   19
0.0000000000e+00 0.0000000000e+00 0.0000000000e+00
4.6663788614e+00 -3.2986597698e+00 0.0000000000e+00
     1      1      2
 1  1  1    -1.4249895505e-02
 1  1  2     2.9823393398e-01
 1  1  3     2.7248965265e-01
 1  2  1     1.6264668932e-01
 1  2  2    -1.0520461671e-01
 1  2  3    -3.2526953098e-01
 1  3  1     8.8705737628e-02
 1  3  2    -1.4311035683e-01
 1  3  3    -8.9055956891e-02
 2  1  1     1.6264668932e-01
 2  1  2    -1.0520461671e-01
 2  1  3    -3.2526953098e-01
 2  2  1     5.3110707272e-02
 2  2  2     1.6750000000e-01
 2  2  3     1.0649179062e-01
 2  3  1    -1.7356934273e-01
 2  3  2     6.0578836744e-02
 2  3  3     1.1090567716e-01
 3  1  1     8.8705737628e-02
 3  1  2    -1.4311035683e-01
 3  1  3    -8.9055956891e-02
 3  2  1    -1.7356934273e-01
 3  2  2     6.0578836744e-02
 3  2  3     1.1090567716e-01
 3  3  1    -6.5966042881e-03
 3  3  2     1.1875397456e-01
 3  3  3     1.0425058618e-02

   20
0.0000000000e+00 0.0000000000e+00 0.0000000000e+00
4.6663788614e+00 -3.2986597698e+00 0.0000000000e+00
     1      1      4
 1  1  1    -9.8886611158e+00
 1  1  2     1.2686320729e+01
 1  1  3    -2.1994063470e-01
 1  2  1     1.3059468627e+01
 1  2  2    -1.5307589692e+01
 1  2  3    -6.3926609261e-01
 1  3  1    -1.1321614718e+00
 1  3  2     5.8607577487e-01
 1  3  3     2.5527096994e+00
 2  1  1     1.3059468627e+01
 2  1  2    -1.5307589692e+01
 2  1  3    -6.3926609261e-01
 2  2  1    -1.5460706339e+01
 2  2  2     1.4097650000e+01
 2  2  3     6.5225597015e-01
 2  3  1    -4.4887235900e-01
 2  3  2     2.4225588640e-01
 2  3  3    -1.4197495108e+00
 3  1  1    -1.1321614718e+00
 3  1  2     5.8607577487e-01
 3  1  3     2.5527096994e+00
 3  2  1    -4.4887235900e-01
 3  2  2     2.4225588640e-01
 3  2  3    -1.4197495108e+00
 3  3  1     2.8887030395e+00
 3  3  2    -2.3427690809e+00
 3  3  3    -4.0615902554e-02

   21
0.0000000000e+00 0.0000000000e+00 0.0000000000e+00
-4.6663788614e+00 -3.2986597698e+00 0.0000000000e+00
     1      1      3
 1  1  1     6.7547782053e-01
 1  1  2     3.0649379783e-01
 1  1  3     7.2842183675e-01
 1  2  1     4.7329974323e-02
 1  2  2     3.2160681243e-01
 1  2  3     3.3316054438e-01
 1  3  1     1.8598376826e-01
 1  3  2     1.1747149790e-01
 1  3  3     3.9267677703e-01
 2  1  1     4.7329974323e-02
 2  1  2     3.2160681243e-01
 2  1  3     3.3316054438e-01
 2  2  1     2.7565663162e-01
 2  2  2    -2.1769233499e-01
 2  2  3     3.2896792102e-01
 2  3  1     8.6753551670e-02
 2  3  2     1.2617005272e-01
 2  3  3     4.8198810192e-01
 3  1  1     1.8598376826e-01
 3  1  2     1.1747149790e-01
 3  1  3     3.9267677703e-01
 3  2  1     8.6753551670e-02
 3  2  2     1.2617005272e-01
 3  2  3     4.8198810192e-01
 3  3  1     1.4345296203e-01
 3  3  2    -3.0642440905e-01
 3  3  3     2.5169781744e-01

   22
0.0000000000e+00 0.0000000000e+00 0.0000000000e+00
0.0000000000e+00 0.0000000000e+00 0.0000000000e+00
     1      2      1
 1  1  1     4.9236235864e-01
 1  1  2     0.0000000000e+00
 1  1  3     2.6346321767e+00
 1  2  1     0.0000000000e+00
 1  2  2    -6.0580211911e-01
 1  2  3     0.0000000000e+00
 1  3  1     9.0666179535e-01
 1  3  2     0.0000000000e+00
 1  3  3     1.3671421897e+01
 2  1  1     0.0000000000e+00
 2  1  2    -4.0788186443e-01
 2  1  3     0.0000000000e+00
 2  2  1    -6.0580211911e-01
 2  2  2     0.0000000000e+00
 2  2  3    -1.1494746942e+00
 2  3  1     0.0000000000e+00
 2  3  2    -1.0773589074e+00
 2  3  3     0.0000000000e+00
 3  1  1     2.6346321767e+00
 3  1  2     0.0000000000e+00
 3  1  3     1.3245275346e+01
 3  2  1     0.0000000000e+00
 3  2  2    -1.1494746942e+00
 3  2  3     0.0000000000e+00
 3  3  1     1.3671421897e+01
 3  3  2     0.0000000000e+00
 3  3  3     2.7884999942e+01

   23
0.0000000000e+00 0.0000000000e+00 0.0000000000e+00
0.0000000000e+00 0.0000000000e+00 0.0000000000e+00
     1      2      2
 1  1  1    -4.9236235864e-01
 1  1  2     0.0000000000e+00
 1  1  3    -2.6346321767e+00
 1  2  1     0.0000000000e+00
 1  2  2     4.0788186443e-01
 1  2  3     0.0000000000e+00
 1  3  1    -2.6346321767e+00
 1  3  2     0.0000000000e+00
 1  3  3    -1.3245275346e+01
 2  1  1     0.0000000000e+00
 2  1  2     6.0580211911e-01
 2  1  3     0.0000000000e+00
 2  2  1     6.0580211911e-01
 2  2  2     0.0000000000e+00
 2  2  3     1.1494746942e+00
 2  3  1     0.0000000000e+00
 2  3  2     1.1494746942e+00
 2  3  3     0.0000000000e+00
 3  1  1    -9.0666179535e-01
 3  1  2     0.0000000000e+00
 3  1  3    -1.3671421897e+01
 3  2  1     0.0000000000e+00
 3  2  2     1.0773589074e+00
 3  2  3     0.0000000000e+00
 3  3  1    -1.3671421897e+01
 3  3  2     0.0000000000e+00
 3  3  3    -2.7884999942e+01

   24
0.0000000000e+00 0.0000000000e+00 0.0000000000e+00
0.0000000000e+00 0.0000000000e+00 0.0000000000e+00
     1      2      3
 1  1  1    -7.7948831760e-02
 1  1  2    -6.4598887806e-02
 1  1  3    -1.1529209926e-01
 1  2  1     4.8331086296e-02
 1  2  2    -6.8726471982e-02
 1  2  3    -1.0481439186e-01
 1  3  1    -3.0483314119e-02
 1  3  2     1.4257784658e-02
 1  3  3     3.2020039027e-01
 2  1  1     1.3459273684e-01
 2  1  2     6.4699068477e-02
 2  1  3    -1.2227234719e-01
 2  2  1     8.8467478207e-02
 2  2  2    -4.8272510603e-02
 2  2  3    -9.2749831666e-04
 2  3  1     1.2417088168e-02
 2  3  2    -2.2062675243e-01
 2  3  3     2.0505651825e-01
 3  1  1     3.5408990900e-02
 3  1  2     2.5447396258e-02
 3  1  3    -8.9628124454e-02
 3  2  1    -3.5642460878e-02
 3  2  2    -9.8223759907e-02
 3  2  3     4.8574442174e-02
 3  3  1     2.7564005203e-01
 3  3  2     1.3536524296e-01
 3  3  3     2.3657731917e-02

   25
0.0000000000e+00 0.0000000000e+00 0.0000000000e+00
0.0000000000e+00 0.0000000000e+00 0.0000000000e+00
     1      2      4
 1  1  1     7.7948831760e-02
 1  1  2    -6.4598887806e-02
 1  1  3     1.1529209926e-01
 1  2  1     1.3459273684e-01
 1  2  2    -6.4699068477e-02
 1  2  3    -1.2227234719e-01
 1  3  1    -3.5408990900e-02
 1  3  2     2.5447396258e-02
 1  3  3     8.9628124454e-02
 2  1  1     4.8331086296e-02
 2  1  2     6.8726471982e-02
 2  1  3    -1.0481439186e-01
 2  2  1    -8.8467478207e-02
 2  2  2    -4.8272510603e-02
 2  2  3     9.2749831666e-04
 2  3  1    -3.5642460878e-02
 2  3  2     9.8223759907e-02
 2  3  3     4.8574442174e-02
 3  1  1     3.0483314119e-02
 3  1  2     1.4257784658e-02
 3  1  3    -3.2020039027e-01
 3  2  1     1.2417088168e-02
 3  2  2     2.2062675243e-01
 3  2  3     2.0505651825e-01
 3  3  1    -2.7564005203e-01
 3  3  2     1.3536524296e-01
 3  3  3    -2.3657731917e-02

   26
0.0000000000e+00 0.0000000000e+00 0.0000000000e+00
4.6663788614e+00 0.0000000000e+00 0.0000000000e+00
     1      2      2
 1  1  1    -4.1703200832e-02
 1  1  2     0.0000000000e+00
 1  1  3    -3.0718268045e-02
 1  2  1     0.0000000000e+00
 1  2  2    -1.8906112205e-02
 1  2  3     0.0000000000e+00
 1  3  1     1.9010622036e-02
 1  3  2     0.0000000000e+00
 1  3  3    -6.2411570505e-02
 2  1  1     0.0000000000e+00
 2  1  2     1.6698255924e-02
 2  1  3     0.0000000000e+00
 2  2  1     3.2031694467e-03
 2  2  2     0.0000000000e+00
 2  2  3    -2.8315860032e-02
 2  3  1     0.0000000000e+00
 2  3  2    -5.6184466521e-02
 2  3  3     0.0000000000e+00
 3  1  1    -4.9260946166e-03
 3  1  2     0.0000000000e+00
 3  1  3    -2.5403596460e-02
 3  2  1     0.0000000000e+00
 3  2  2    -1.2898981666e-02
 3  2  3     0.0000000000e+00
 3  3  1    -1.4044826211e-01
 3  3  2     0.0000000000e+00
 3  3  3    -2.2589875983e-02

   27
0.0000000000e+00 0.0000000000e+00 0.0000000000e+00
4.6663788614e+00 0.0000000000e+00 0.0000000000e+00
     1      2      4
 1  1  1    -6.5565371384e-02
 1  1  2    -5.1502741143e-01
 1  1  3     2.3350871527e-01
 1  2  1    -5.2044526441e-01
 1  2  2    -2.6079623396e-01
 1  2  3     2.0003294539e-02
 1  3  1     9.2447235047e-01
 1  3  2     2.6547957549e-01
 1  3  3    -2.9649380796e-01
 2  1  1    -5.4597672332e-01
 2  1  2    -4.9286596280e-01
 2  1  3    -2.9551133088e-01
 2  2  1    -1.9878127724e-01
 2  2  2    -2.7965514587e-01
 2  2  3    -2.6846457878e-01
 2  3  1    -2.3472288348e-01
 2  3  2    -6.4673230361e-02
 2  3  3     4.6263409699e-01
 3  1  1    -4.9561137066e-02
 3  1  2    -1.3457215909e-01
 3  1  3     1.9243280269e-01
 3  2  1    -4.2079174208e-01
 3  2  2    -2.0731251626e-01
 3  2  3     4.8298934451e-01
 3  3  1    -3.1796774083e-01
 3  3  2    -5.1062097500e-01
 3  3  3     1.7163187548e-01

   28
0.0000000000e+00 0.0000000000e+00 0.0000000000e+00
-4.6663788614e+00 0.0000000000e+00 0.0000000000e+00
     1      2      1
 1  1  1     4.1703200832e-02
 1  1  2     0.0000000000e+00
 1  1  3     3.0718268045e-02
 1  2  1     0.0000000000e+00
 1  2  2    -1.6698255924e-02
 1  2  3     0.0000000000e+00
 1  3  1     4.9260946166e-03
 1  3  2     0.0000000000e+00
 1  3  3     2.5403596460e-02
 2  1  1     0.0000000000e+00
 2  1  2     1.8906112205e-02
 2  1  3     0.0000000000e+00
 2  2  1    -3.2031694467e-03
 2  2  2     0.0000000000e+00
 2  2  3     2.8315860032e-02
 2  3  1     0.0000000000e+00
 2  3  2     1.2898981666e-02
 2  3  3     0.0000000000e+00
 3  1  1    -1.9010622036e-02
 3  1  2     0.0000000000e+00
 3  1  3     6.2411570505e-02
 3  2  1     0.0000000000e+00
 3  2  2     5.6184466521e-02
 3  2  3     0.0000000000e+00
 3  3  1     1.4044826211e-01
 3  3  2     0.0000000000e+00
 3  3  3     2.2589875983e-02

   29
0.0000000000e+00 0.0000000000e+00 0.0000000000e+00
-4.6663788614e+00 0.0000000000e+00 0.0000000000e+00
     1      2      3
 1  1  1     6.5565371384e-02
 1  1  2    -5.1502741143e-01
 1  1  3    -2.3350871527e-01
 1  2  1    -5.4597672332e-01
 1  2  2     4.9286596280e-01
 1  2  3    -2.9551133088e-01
 1  3  1     4.9561137066e-02
 1  3  2    -1.3457215909e-01
 1  3  3    -1.9243280269e-01
 2  1  1    -5.2044526441e-01
 2  1  2     2.6079623396e-01
 2  1  3     2.0003294539e-02
 2  2  1     1.9878127724e-01
 2  2  2    -2.7965514587e-01
 2  2  3     2.6846457878e-01
 2  3  1    -4.2079174208e-01
 2  3  2     2.0731251626e-01
 2  3  3     4.8298934451e-01
 3  1  1    -9.2447235047e-01
 3  1  2     2.6547957549e-01
 3  1  3     2.9649380796e-01
 3  2  1    -2.3472288348e-01
 3  2  2     6.4673230361e-02
 3  2  3     4.6263409699e-01
 3  3  1     3.1796774083e-01
 3  3  2    -5.1062097500e-01
 3  3  3    -1.7163187548e-01

   30
0.0000000000e+00 0.0000000000e+00 0.0000000000e+00
0.0000000000e+00 3.2986597698e+00 0.0000000000e+00
     1      2      1
 1  1  1    -8.3535195976e-02
 1  1  2     8.6205188277e-02
 1  1  3    -2.6009548067e-02
 1  2  1     1.2036692273e-02
 1  2  2     9.3714217959e-02
 1  2  3     6.7115960342e-02
 1  3  1    -4.6536400958e-02
 1  3  2     2.6024610715e-02
 1  3  3    -8.1848159416e-02
 2  1  1    -4.1339872206e-02
 2  1  2     7.5597795567e-02
 2  1  3     3.8282225327e-02
 2  2  1    -6.4731815525e-02
 2  2  2     6.3625000000e-02
 2  2  3    -3.8710567999e-02
 2  3  1     3.4290809106e-02
 2  3  2     2.4454487486e-02
 2  3  3     6.1014720654e-03
 3  1  1     9.5871586651e-03
 3  1  2     3.4102485191e-03
 3  1  3     3.3625365969e-02
 3  2  1     5.3721943021e-02
 3  2  2     5.9114061253e-02
 3  2  3     8.5664370873e-03
 3  3  1    -9.2054169357e-03
 3  3  2     3.5274742509e-02
 3  3  3     2.3677400201e-02

   31
0.0000000000e+00 0.0000000000e+00 0.0000000000e+00
0.0000000000e+00 3.2986597698e+00 0.0000000000e+00
     1      2      2
 1  1  1     8.3535195976e-02
 1  1  2     8.6205188277e-02
 1  1  3     2.6009548067e-02
 1  2  1    -4.1339872206e-02
 1  2  2    -7.5597795567e-02
 1  2  3     3.8282225327e-02
 1  3  1    -9.5871586651e-03
 1  3  2     3.4102485191e-03
 1  3  3    -3.3625365969e-02
 2  1  1     1.2036692273e-02
 2  1  2    -9.3714217959e-02
 2  1  3     6.7115960342e-02
 2  2  1     6.4731815525e-02
 2  2  2     6.3625000000e-02
 2  2  3     3.8710567999e-02
 2  3  1     5.3721943021e-02
 2  3  2    -5.9114061253e-02
 2  3  3     8.5664370873e-03
 3  1  1     4.6536400958e-02
 3  1  2     2.6024610715e-02
 3  1  3     8.1848159416e-02
 3  2  1     3.4290809106e-02
 3  2  2    -2.4454487486e-02
 3  2  3     6.1014720654e-03
 3  3  1     9.2054169357e-03
 3  3  2     3.5274742509e-02
 3  3  3    -2.3677400201e-02

   32
0.0000000000e+00 0.0000000000e+00 0.0000000000e+00
0.0000000000e+00 -3.2986597698e+00 0.0000000000e+00
     1      2      1
 1  1  1    -8.3535195976e-02
 1  1  2    -8.6205188277e-02
 1  1  3    -2.6009548067e-02
 1  2  1    -1.2036692273e-02
 1  2  2     9.3714217959e-02
 1  2  3    -6.7115960342e-02
 1  3  1    -4.6536400958e-02
 1  3  2    -2.6024610715e-02
 1  3  3    -8.1848159416e-02
 2  1  1     4.1339872206e-02
 2  1  2     7.5597795567e-02
 2  1  3    -3.8282225327e-02
 2  2  1    -6.4731815525e-02
 2  2  2    -6.3625000000e-02
 2  2  3    -3.8710567999e-02
 2  3  1    -3.4290809106e-02
 2  3  2     2.4454487486e-02
 2  3  3    -6.1014720654e-03
 3  1  1     9.5871586651e-03
 3  1  2    -3.4102485191e-03
 3  1  3     3.3625365969e-02
 3  2  1    -5.3721943021e-02
 3  2  2     5.9114061253e-02