14.400
   5.5429220   0.0000000   0.0000000   0.0000000   5.5429220   0.0000000   0.0000000   0.0000000   5.8492550
   2.5749225   0.0000000   0.0000000   0.0000000   2.5749225   0.0000000   0.0000000   0.0000000   2.7477150
   2.5749225   0.0000000   0.0000000   0.0000000   2.5749225   0.0000000   0.0000000   0.0000000   2.7477150
  -2.5749225  -0.0000000   0.0000000   0.0000000  -2.5749225   0.0000000   0.0000000   0.0000000  -2.7477150
  -2.5749225  -0.0000000   0.0000000   0.0000000  -2.5749225   0.0000000   0.0000000   0.0000000  -2.7477150
