  616

    1
0.0000000000e+00 0.0000000000e+00 0.0000000000e+00
0.0000000000e+00 0.0000000000e+00 0.0000000000e+00
     1      1      1
 1  1  1     0.0000000000e+00
 1  1  2    -5.4190176652e+01
 1  1  3    -3.0352427953e+01
 1  2  1    -5.4190176652e+01
 1  2  2     0.0000000000e+00
 1  2  3     0.0000000000e+00
 1  3  1    -3.0352427953e+01
 1  3  2     0.0000000000e+00
 1  3  3     0.0000000000e+00
 2  1  1    -5.4190176652e+01
 2  1  2     0.0000000000e+00
 2  1  3     0.0000000000e+00
 2  2  1     0.0000000000e+00
 2  2  2     5.4190176652e+01
 2  2  3    -3.0352427953e+01
 2  3  1     0.0000000000e+00
 2  3  2    -3.0352427953e+01
 2  3  3     0.0000000000e+00
 3  1  1    -3.0352427953e+01
 3  1  2     0.0000000000e+00
 3  1  3     0.0000000000e+00
 3  2  1     0.0000000000e+00
 3  2  2    -3.0352427953e+01
 3  2  3     0.0000000000e+00
 3  3  1     0.0000000000e+00
 3  3  2     0.0000000000e+00
 3  3  3     5.7586278942e+01

    2
0.0000000000e+00 0.0000000000e+00 0.0000000000e+00
0.0000000000e+00 0.0000000000e+00 0.0000000000e+00
     1      1      2
 1  1  1     5.4143112191e-01
 1  1  2     2.4472222480e-01
 1  1  3    -4.8389563251e-01
 1  2  1     2.7855080296e-01
 1  2  2     1.6094610193e-01
 1  2  3     4.2553520750e-01
 1  3  1    -5.4510047305e-01
 1  3  2     5.4793312125e-01
 1  3  3    -1.2357241056e+00
 2  1  1     2.7855080296e-01
 2  1  2     1.6094610193e-01
 2  1  3     4.2553520750e-01
 2  2  1     2.1953891805e-01
 2  2  2    -6.8406848221e-01
 2  2  3     7.4701006964e-03
 2  3  1     5.4793312125e-01
 2  3  2     8.7598197055e-02
 2  3  3     7.1344564504e-01
 3  1  1    -5.4510047305e-01
 3  1  2     5.4793312125e-01
 3  1  3    -1.2357241056e+00
 3  2  1     5.4793312125e-01
 3  2  2     8.7598197055e-02
 3  2  3     7.1344564504e-01
 3  3  1    -9.0156071618e-01
 3  3  2     5.2051632218e-01
 3  3  3    -2.0523261394e+00

    3
0.0000000000e+00 0.0000000000e+00 0.0000000000e+00
0.0000000000e+00 0.0000000000e+00 0.0000000000e+00
     1      1      3
 1  1  1     0.0000000000e+00
 1  1  2    -6.2555757238e-01
 1  1  3     2.8432880641e+00
 1  2  1    -6.2555757238e-01
 1  2  2     0.0000000000e+00
 1  2  3     0.0000000000e+00
 1  3  1     1.8728721322e+00
 1  3  2     0.0000000000e+00
 1  3  3     0.0000000000e+00
 2  1  1    -6.2555757238e-01
 2  1  2     0.0000000000e+00
 2  1  3     0.0000000000e+00
 2  2  1     0.0000000000e+00
 2  2  2     6.2555757238e-01
 2  2  3     2.8432880641e+00
 2  3  1     0.0000000000e+00
 2  3  2     1.8728721322e+00
 2  3  3     0.0000000000e+00
 3  1  1     1.8728721322e+00
 3  1  2     0.0000000000e+00
 3  1  3     0.0000000000e+00
 3  2  1     0.0000000000e+00
 3  2  2     1.8728721322e+00
 3  2  3     0.0000000000e+00
 3  3  1     0.0000000000e+00
 3  3  2     0.0000000000e+00
 3  3  3    -4.6578714903e+01

    4
0.0000000000e+00 0.0000000000e+00 0.0000000000e+00
3.1549470672e+00 0.0000000000e+00 0.0000000000e+00
     1      1      1
 1  1  1    -2.8547500000e+00
 1  1  2     7.2793626795e-01
 1  1  3     2.1859820364e-01
 1  2  1    -4.4298812316e-02
 1  2  2     3.0783551731e-01
 1  2  3    -1.9422302205e-01
 1  3  1     4.7572117712e-02
 1  3  2    -1.8368461301e-01
 1  3  3     5.5371084870e-01
 2  1  1    -4.4298812316e-02
 2  1  2     3.0783551731e-01
 2  1  3    -1.9422302205e-01
 2  2  1     7.2944694690e-01
 2  2  2     2.9303949099e-01
 2  2  3    -2.1015021006e-01
 2  3  1     1.0440506860e-01
 2  3  2    -2.9181196856e-02
 2  3  3     1.3414421024e-03
 3  1  1     4.7572117712e-02
 3  1  2    -1.8368461301e-01
 3  1  3     5.5371084870e-01
 3  2  1     1.0440506860e-01
 3  2  2    -2.9181196856e-02
 3  2  3     1.3414421024e-03
 3  3  1     6.5526650340e-01
 3  3  2     2.5578919715e-02
 3  3  3     1.1581078819e-01

    5
0.0000000000e+00 0.0000000000e+00 0.0000000000e+00
-3.1549470672e+00 0.0000000000e+00 0.0000000000e+00
     1      1      1
 1  1  1     2.8547500000e+00
 1  1  2     7.2793626795e-01
 1  1  3     2.1859820364e-01
 1  2  1    -4.4298812316e-02
 1  2  2    -3.0783551731e-01
 1  2  3     1.9422302205e-01
 1  3  1     4.7572117712e-02
 1  3  2     1.8368461301e-01
 1  3  3    -5.5371084870e-01
 2  1  1    -4.4298812316e-02
 2  1  2    -3.0783551731e-01
 2  1  3     1.9422302205e-01
 2  2  1    -7.2944694690e-01
 2  2  2     2.9303949099e-01
 2  2  3    -2.1015021006e-01
 2  3  1    -1.0440506860e-01
 2  3  2    -2.9181196856e-02
 2  3  3     1.3414421024e-03
 3  1  1     4.7572117712e-02
 3  1  2     1.8368461301e-01
 3  1  3    -5.5371084870e-01
 3  2  1    -1.0440506860e-01
 3  2  2    -2.9181196856e-02
 3  2  3     1.3414421024e-03
 3  3  1    -6.5526650340e-01
 3  3  2     2.5578919715e-02
 3  3  3     1.1581078819e-01

    6
0.0000000000e+00 0.0000000000e+00 0.0000000000e+00
-3.1549470672e+00 0.0000000000e+00 0.0000000000e+00
     1      1      2
 1  1  1    -5.4143112191e-01
 1  1  2     2.4472222480e-01
 1  1  3    -4.8389563251e-01
 1  2  1     2.7855080296e-01
 1  2  2    -1.6094610193e-01
 1  2  3    -4.2553520750e-01
 1  3  1    -5.4510047305e-01
 1  3  2    -5.4793312125e-01
 1  3  3     1.2357241056e+00
 2  1  1     2.7855080296e-01
 2  1  2    -1.6094610193e-01
 2  1  3    -4.2553520750e-01
 2  2  1    -2.1953891805e-01
 2  2  2    -6.8406848221e-01
 2  2  3     7.4701006964e-03
 2  3  1    -5.4793312125e-01
 2  3  2     8.7598197055e-02
 2  3  3     7.1344564504e-01
 3  1  1    -5.4510047305e-01
 3  1  2    -5.4793312125e-01
 3  1  3     1.2357241056e+00
 3  2  1    -5.4793312125e-01
 3  2  2     8.7598197055e-02
 3  2  3     7.1344564504e-01
 3  3  1     9.0156071618e-01
 3  3  2     5.2051632218e-01
 3  3  3    -2.0523261394e+00

    7
0.0000000000e+00 0.0000000000e+00 0.0000000000e+00
-1.5774735336e+00 2.7322643078e+00 0.0000000000e+00
     1      1      1
 1  1  1    -4.7633110239e-01
 1  1  2    -5.1168445626e-01
 1  1  3    -2.7116517773e-01
 1  2  1    -4.9069312468e-01
 1  2  2     1.5343725970e+00
 1  2  3    -8.8541998027e-02
 1  3  1    -4.4321917944e-02
 1  3  2    -1.5746011482e-01
 1  3  3    -2.7801714729e-01
 2  1  1    -4.9069312468e-01
 2  1  2     1.5343725970e+00
 2  1  3    -8.8541998027e-02
 2  2  1     6.5479168505e-01
 2  2  2    -1.8393698579e+00
 2  2  3     2.7961317131e-01
 2  3  1     1.3062956678e-01
 2  3  2     6.2712838799e-02
 2  3  3     4.7885694028e-01
 3  1  1    -4.4321917944e-02
 3  1  2    -1.5746011482e-01
 3  1  3    -2.7801714729e-01
 3  2  1     1.3062956678e-01
 3  2  2     6.2712838799e-02
 3  2  3     4.7885694028e-01
 3  3  1    -3.4978524597e-01
 3  3  2     5.5468797834e-01
 3  3  3     1.1581078819e-01

    8
0.0000000000e+00 0.0000000000e+00 0.0000000000e+00
-1.5774735336e+00 2.7322643078e+00 0.0000000000e+00
     1      1      2
 1  1  1     0.0000000000e+00
 1  1  2     6.2497478509e-01
 1  1  3     2.5315296730e-01
 1  2  1     5.5731762878e-01
 1  2  2     0.0000000000e+00
 1  2  3     0.0000000000e+00
 1  3  1     4.0394753211e-01
 1  3  2     0.0000000000e+00
 1  3  3     0.0000000000e+00
 2  1  1     5.5731762878e-01
 2  1  2     0.0000000000e+00
 2  1  3     0.0000000000e+00
 2  2  1     0.0000000000e+00
 2  2  2     2.5371772973e-01
 2  2  3    -7.2957849911e-01
 2  3  1     0.0000000000e+00
 2  3  2    -8.6144980811e-01
 2  3  3    -1.4268912901e+00
 3  1  1     4.0394753211e-01
 3  1  2     0.0000000000e+00
 3  1  3     0.0000000000e+00
 3  2  1     0.0000000000e+00
 3  2  2    -8.6144980811e-01
 3  2  3    -1.4268912901e+00
 3  3  1     0.0000000000e+00
 3  3  2    -1.0410326444e+00
 3  3  3    -2.0523261394e+00

    9
0.0000000000e+00 0.0000000000e+00 0.0000000000e+00
1.5774735336e+00 2.7322643078e+00 0.0000000000e+00
     1      1      1
 1  1  1     4.7633110239e-01
 1  1  2    -5.1168445626e-01
 1  1  3    -2.7116517773e-01
 1  2  1    -4.9069312468e-01
 1  2  2    -1.5343725970e+00
 1  2  3     8.8541998027e-02
 1  3  1    -4.4321917944e-02
 1  3  2     1.5746011482e-01
 1  3  3     2.7801714729e-01
 2  1  1    -4.9069312468e-01
 2  1  2    -1.5343725970e+00
 2  1  3     8.8541998027e-02
 2  2  1    -6.5479168505e-01
 2  2  2    -1.8393698579e+00
 2  2  3     2.7961317131e-01
 2  3  1    -1.3062956678e-01
 2  3  2     6.2712838799e-02
 2  3  3     4.7885694028e-01
 3  1  1    -4.4321917944e-02
 3  1  2     1.5746011482e-01
 3  1  3     2.7801714729e-01
 3  2  1    -1.3062956678e-01
 3  2  2     6.2712838799e-02
 3  2  3     4.7885694028e-01
 3  3  1     3.4978524597e-01
 3  3  2     5.5468797834e-01
 3  3  3     1.1581078819e-01

   10
0.0000000000e+00 0.0000000000e+00 0.0000000000e+00
1.5774735336e+00 -2.7322643078e+00 0.0000000000e+00
     1      1      1
 1  1  1    -1.8118011624e-01
 1  1  2     4.3472552556e-02
 1  1  3     6.5238964456e-02
 1  2  1     7.9471630124e-01
 1  2  2    -1.3076928718e+00
 1  2  3    -2.8276502007e-01
 1  3  1     2.4336181516e-02
 1  3  2     9.0989794578e-02
 1  3  3     2.7569370141e-01
 2  1  1     7.9471630124e-01
 2  1  2    -1.3076928718e+00
 2  1  3    -2.8276502007e-01
 2  2  1    -1.7656623542e+00
 2  2  2     1.2866060027e+00
 2  2  3    -5.6790970875e-02
 2  3  1    -1.9709988702e-01
 2  3  2    -5.9452606601e-03
 2  3  3    -4.8019838238e-01
 3  1  1     2.4336181516e-02
 3  1  2     9.0989794578e-02
 3  1  3     2.7569370141e-01
 3  2  1    -1.9709988702e-01
 3  2  2    -5.9452606601e-03
 3  2  3    -4.8019838238e-01
 3  3  1     3.0548125743e-01
 3  3  2    -5.8026689805e-01
 3  3  3     1.1581078819e-01

   11
0.0000000000e+00 0.0000000000e+00 0.0000000000e+00
-1.5774735336e+00 -2.7322643078e+00 0.0000000000e+00
     1      1      1
 1  1  1     1.8118011624e-01
 1  1  2     4.3472552556e-02
 1  1  3     6.5238964456e-02
 1  2  1     7.9471630124e-01
 1  2  2     1.3076928718e+00
 1  2  3     2.8276502007e-01
 1  3  1     2.4336181516e-02
 1  3  2    -9.0989794578e-02
 1  3  3    -2.7569370141e-01
 2  1  1     7.9471630124e-01
 2  1  2     1.3076928718e+00
 2  1  3     2.8276502007e-01
 2  2  1     1.7656623542e+00
 2  2  2     1.2866060027e+00
 2  2  3    -5.6790970875e-02
 2  3  1     1.9709988702e-01
 2  3  2    -5.9452606601e-03
 2  3  3    -4.8019838238e-01
 3  1  1     2.4336181516e-02
 3  1  2    -9.0989794578e-02
 3  1  3    -2.7569370141e-01
 3  2  1     1.9709988702e-01
 3  2  2    -5.9452606601e-03
 3  2  3    -4.8019838238e-01
 3  3  1    -3.0548125743e-01
 3  3  2    -5.8026689805e-01
 3  3  3     1.1581078819e-01

   12
0.0000000000e+00 0.0000000000e+00 0.0000000000e+00
0.0000000000e+00 0.0000000000e+00 -5.1445326223e+00
     1      1      2
 1  1  1    -2.4450573843e-02
 1  1  2     1.9367890186e-01
 1  1  3     4.2483795307e-01
 1  2  1     2.4993922233e-01
 1  2  2    -4.0632102450e-02
 1  2  3    -3.8755104543e-01
 1  3  1     5.8458467666e-01
 1  3  2    -6.0860811696e-01
 1  3  3    -1.1946920272e+00
 2  1  1     2.4993922233e-01
 2  1  2    -4.0632102450e-02
 2  1  3    -3.8755104543e-01
 2  2  1     5.6813631057e-02
 2  2  2    -2.1236372165e-01
 2  2  3    -2.2667447747e-02
 2  3  1    -6.0860811696e-01
 2  3  2    -1.1817544365e-01
 2  3  3     6.8975576348e-01
 3  1  1     5.8458467666e-01
 3  1  2    -6.0860811696e-01
 3  1  3    -1.1946920272e+00
 3  2  1    -6.0860811696e-01
 3  2  2    -1.1817544365e-01
 3  2  3     6.8975576348e-01
 3  3  1    -1.5787018817e+00
 3  3  2     9.1146395635e-01
 3  3  3     1.0274964451e+00

   13
0.0000000000e+00 0.0000000000e+00 0.0000000000e+00
0.0000000000e+00 0.0000000000e+00 -5.1445326223e+00
     1      1      3
 1  1  1     0.0000000000e+00
 1  1  2     1.6557916290e-02
 1  1  3     1.7517779658e-01
 1  2  1     1.6557916290e-02
 1  2  2     0.0000000000e+00
 1  2  3     0.0000000000e+00
 1  3  1     2.3218940045e-01
 1  3  2     0.0000000000e+00
 1  3  3     0.0000000000e+00
 2  1  1     1.6557916290e-02
 2  1  2     0.0000000000e+00
 2  1  3     0.0000000000e+00
 2  2  1     0.0000000000e+00
 2  2  2    -1.6557916290e-02
 2  2  3     1.7517779658e-01
 2  3  1     0.0000000000e+00
 2  3  2     2.3218940045e-01
 2  3  3     0.0000000000e+00
 3  1  1     2.3218940045e-01
 3  1  2     0.0000000000e+00
 3  1  3     0.0000000000e+00
 3  2  1     0.0000000000e+00
 3  2  2     2.3218940045e-01
 3  2  3     0.0000000000e+00
 3  3  1     0.0000000000e+00
 3  3  2     0.0000000000e+00
 3  3  3    -4.7417749071e-01

   14
0.0000000000e+00 0.0000000000e+00 0.0000000000e+00
0.0000000000e+00 0.0000000000e+00 -5.1445326223e+00
     1      1      4
 1  1  1    -3.2509244394e+01
 1  1  2     2.3477471502e+01
 1  1  3     1.4520688638e+01
 1  2  1     2.3888808389e+01
 1  2  2    -1.1073900260e+01
 1  2  3    -9.3196281050e+00
 1  3  1     1.4730702671e+01
 1  3  2    -9.2452693353e+00
 1  3  3    -2.8508104120e+00
 2  1  1     2.3888808389e+01
 2  1  2    -1.1073900260e+01
 2  1  3    -9.3196281050e+00
 2  2  1    -1.0361443873e+01
 2  2  2     1.2739319091e+00
 2  2  3     3.7593090481e+00
 2  3  1    -9.2452693353e+00
 2  3  2     4.0551851917e+00
 2  3  3     1.6459161588e+00
 3  1  1     1.4730702671e+01
 3  1  2    -9.2452693353e+00
 3  1  3    -2.8508104120e+00
 3  2  1    -9.2452693353e+00
 3  2  2     4.0551851917e+00
 3  2  3     1.6459161588e+00
 3  3  1    -1.4597155989e+00
 3  3  2     8.4276719396e-01
 3  3  3    -2.7179203642e+00

   15
0.0000000000e+00 0.0000000000e+00 0.0000000000e+00
-3.1549470672e+00 0.0000000000e+00 -5.1445326223e+00
     1      1      2
 1  1  1     2.4450573843e-02
 1  1  2     1.9367890186e-01
 1  1  3     4.2483795307e-01
 1  2  1     2.4993922233e-01
 1  2  2     4.0632102450e-02
 1  2  3     3.8755104543e-01
 1  3  1     5.8458467666e-01
 1  3  2     6.0860811696e-01
 1  3  3     1.1946920272e+00
 2  1  1     2.4993922233e-01
 2  1  2     4.0632102450e-02
 2  1  3     3.8755104543e-01
 2  2  1    -5.6813631057e-02
 2  2  2    -2.1236372165e-01
 2  2  3    -2.2667447747e-02
 2  3  1     6.0860811696e-01
 2  3  2    -1.1817544365e-01
 2  3  3     6.8975576348e-01
 3  1  1     5.8458467666e-01
 3  1  2     6.0860811696e-01
 3  1  3     1.1946920272e+00
 3  2  1     6.0860811696e-01
 3  2  2    -1.1817544365e-01
 3  2  3     6.8975576348e-01
 3  3  1     1.5787018817e+00
 3  3  2     9.1146395635e-01
 3  3  3     1.0274964451e+00

   16
0.0000000000e+00 0.0000000000e+00 0.0000000000e+00
-3.1549470672e+00 0.0000000000e+00 -5.1445326223e+00
     1      1      4
 1  1  1     3.2509244394e+01
 1  1  2     2.3477471502e+01
 1  1  3     1.4520688638e+01
 1  2  1     2.3888808389e+01
 1  2  2     1.1073900260e+01
 1  2  3     9.3196281050e+00
 1  3  1     1.4730702671e+01
 1  3  2     9.2452693353e+00
 1  3  3     2.8508104120e+00
 2  1  1     2.3888808389e+01
 2  1  2     1.1073900260e+01
 2  1  3     9.3196281050e+00
 2  2  1     1.0361443873e+01
 2  2  2     1.2739319091e+00
 2  2  3     3.7593090481e+00
 2  3  1     9.2452693353e+00
 2  3  2     4.0551851917e+00
 2  3  3     1.6459161588e+00
 3  1  1     1.4730702671e+01
 3  1  2     9.2452693353e+00
 3  1  3     2.8508104120e+00
 3  2  1     9.2452693353e+00
 3  2  2     4.0551851917e+00
 3  2  3     1.6459161588e+00
 3  3  1     1.4597155989e+00
 3  3  2     8.4276719396e-01
 3  3  3    -2.7179203642e+00

   17
0.0000000000e+00 0.0000000000e+00 0.0000000000e+00
-1.5774735336e+00 2.7322643078e+00 -5.1445326223e+00
     1      1      2
 1  1  1     0.0000000000e+00
 1  1  2     2.9208299741e-01
 1  1  3    -2.4642014815e-01
 1  2  1     1.7956235647e-01
 1  2  2     0.0000000000e+00
 1  2  3     0.0000000000e+00
 1  3  1    -4.6955550381e-01
 1  3  2     0.0000000000e+00
 1  3  3     0.0000000000e+00
 2  1  1     1.7956235647e-01
 2  1  2     0.0000000000e+00
 2  1  3     0.0000000000e+00
 2  2  1     0.0000000000e+00
 2  2  2    -2.5471335782e-01
 2  2  3     6.4859065347e-01
 2  3  1     0.0000000000e+00
 2  3  2     9.3596473682e-01
 2  3  3    -1.3795115270e+00
 3  1  1    -4.6955550381e-01
 3  1  2     0.0000000000e+00
 3  1  3     0.0000000000e+00
 3  2  1     0.0000000000e+00
 3  2  2     9.3596473682e-01
 3  2  3    -1.3795115270e+00
 3  3  1     0.0000000000e+00
 3  3  2    -1.8229279127e+00
 3  3  3     1.0274964451e+00

   18
0.0000000000e+00 0.0000000000e+00 0.0000000000e+00
-1.5774735336e+00 2.7322643078e+00 -5.1445326223e+00
     1      1      4
 1  1  1     0.0000000000e+00
 1  1  2     5.5309242742e+00
 1  1  3    -1.6213807471e+00
 1  2  1     4.7082505002e+00
 1  2  2     0.0000000000e+00
 1  2  3     0.0000000000e+00
 1  3  1    -1.2825735477e+00
 1  3  2     0.0000000000e+00
 1  3  3     0.0000000000e+00
 2  1  1     4.7082505002e+00
 2  1  2     0.0000000000e+00
 2  1  3     0.0000000000e+00
 2  2  1     0.0000000000e+00
 2  2  2    -5.5033731097e+01
 2  2  3     1.9901378434e+01
 2  3  1     0.0000000000e+00
 2  3  2     2.0068461410e+01
 2  3  3    -3.2918323176e+00
 3  1  1    -1.2825735477e+00
 3  1  2     0.0000000000e+00
 3  1  3     0.0000000000e+00
 3  2  1     0.0000000000e+00
 3  2  2     2.0068461410e+01
 3  2  3    -3.2918323176e+00
 3  3  1     0.0000000000e+00
 3  3  2    -1.6855343879e+00
 3  3  3    -2.7179203642e+00

   19
0.0000000000e+00 0.0000000000e+00 0.0000000000e+00
0.0000000000e+00 0.0000000000e+00 0.0000000000e+00
     1      2      1
 1  1  1     5.4143112191e-01
 1  1  2     2.7855080296e-01
 1  1  3    -5.4510047305e-01
 1  2  1     2.4472222480e-01
 1  2  2     1.6094610193e-01
 1  2  3     5.4793312125e-01
 1  3  1    -4.8389563251e-01
 1  3  2     4.2553520750e-01
 1  3  3    -1.2357241056e+00
 2  1  1     2.7855080296e-01
 2  1  2     2.1953891805e-01
 2  1  3     5.4793312125e-01
 2  2  1     1.6094610193e-01
 2  2  2    -6.8406848221e-01
 2  2  3     8.7598197055e-02
 2  3  1     4.2553520750e-01
 2  3  2     7.4701006964e-03
 2  3  3     7.1344564504e-01
 3  1  1    -5.4510047305e-01
 3  1  2     5.4793312125e-01
 3  1  3    -9.0156071618e-01
 3  2  1     5.4793312125e-01
 3  2  2     8.7598197055e-02
 3  2  3     5.2051632218e-01
 3  3  1    -1.2357241056e+00
 3  3  2     7.1344564504e-01
 3  3  3    -2.0523261394e+00

   20
0.0000000000e+00 0.0000000000e+00 0.0000000000e+00
0.0000000000e+00 0.0000000000e+00 0.0000000000e+00
     1      2      2
 1  1  1     2.4450573843e-02
 1  1  2    -2.4993922233e-01
 1  1  3     5.8458467666e-01
 1  2  1    -2.4993922233e-01
 1  2  2    -5.6813631057e-02
 1  2  3    -6.0860811696e-01
 1  3  1     5.8458467666e-01
 1  3  2    -6.0860811696e-01
 1  3  3     1.5787018817e+00
 2  1  1    -1.9367890186e-01
 2  1  2     4.0632102450e-02
 2  1  3    -6.0860811696e-01
 2  2  1     4.0632102450e-02
 2  2  2     2.1236372165e-01
 2  2  3    -1.1817544365e-01
 2  3  1    -6.0860811696e-01
 2  3  2    -1.1817544365e-01
 2  3  3    -9.1146395635e-01
 3  1  1     4.2483795307e-01
 3  1  2    -3.8755104543e-01
 3  1  3     1.1946920272e+00
 3  2  1    -3.8755104543e-01
 3  2  2    -2.2667447747e-02
 3  2  3    -6.8975576348e-01
 3  3  1     1.1946920272e+00
 3  3  2    -6.8975576348e-01
 3  3  3     1.0274964451e+00

   21
0.0000000000e+00 0.0000000000e+00 0.0000000000e+00
0.0000000000e+00 0.0000000000e+00 0.0000000000e+00
     1      2      3
 1  1  1    -6.3018954833e-01
 1  1  2     1.6692030426e-01
 1  1  3     2.3634734278e-01
 1  2  1     2.0585551465e-01
 1  2  2    -1.1332009046e-01
 1  2  3    -6.8956268975e-02
 1  3  1     2.1050103695e-01
 1  3  2     1.9381017721e-02
 1  3  3    -4.1406931797e-02
 2  1  1     1.0260593386e-01
 2  1  2    -2.9215361024e-01
 2  1  3    -6.8956268975e-02
 2  2  1    -2.2471584763e-01
 2  2  2     3.2665955623e-01
 2  2  3     1.5672350187e-01
 2  3  1     1.9381017721e-02
 2  3  2     2.3288030855e-01
 2  3  3     2.3906303219e-02
 3  1  1     4.7396178537e-01
 3  1  2    -4.0914684996e-01
 3  1  3    -9.5510480602e-01
 3  2  1    -4.0914684996e-01
 3  2  2     1.5196974506e-03
 3  2  3     5.5143001686e-01
 3  3  1     8.2926793890e-02
 3  3  2    -4.7877806775e-02
 3  3  3     2.5658323293e-01

   22
0.0000000000e+00 0.0000000000e+00 0.0000000000e+00
3.1549470672e+00 0.0000000000e+00 0.0000000000e+00
     1      2      1
 1  1  1     0.0000000000e+00
 1  1  2    -1.0824959242e-01
 1  1  3    -1.0454215634e-01
 1  2  1     7.4365701130e-02
 1  2  2     2.9153701654e-02
 1  2  3    -1.4162622443e-02
 1  3  1    -1.3055746960e-01
 1  3  2    -2.5146546518e-02
 1  3  3    -4.8384660698e-02
 2  1  1    -1.0824959242e-01
 2  1  2     0.0000000000e+00
 2  1  3    -1.0797722899e-02
 2  2  1    -2.9153701654e-02
 2  2  2    -3.5381445799e-02
 2  2  3     6.0025644254e-02
 2  3  1     2.5146546518e-02
 2  3  2     1.7221557180e-02
 2  3  3     2.6395634560e-02
 3  1  1    -1.0454215634e-01
 3  1  2     1.0797722899e-02
 3  1  3     0.0000000000e+00
 3  2  1     1.4162622443e-02
 3  2  2     6.0025644254e-02
 3  2  3     1.1672157850e-01
 3  3  1     4.8384660698e-02
 3  3  2     2.6395634560e-02
 3  3  3     1.2210042341e-01

   23
0.0000000000e+00 0.0000000000e+00 0.0000000000e+00
-3.1549470672e+00 0.0000000000e+00 0.0000000000e+00
     1      2      2
 1  1  1     0.0000000000e+00
 1  1  2    -2.0357593528e-02
 1  1  3    -4.3514621893e-02
 1  2  1    -2.0357593528e-02
 1  2  2     0.0000000000e+00
 1  2  3    -1.2749646172e-02
 1  3  1    -4.3514621893e-02
 1  3  2     1.2749646172e-02
 1  3  3     0.0000000000e+00
 2  1  1     5.1472904009e-02
 2  1  2     2.4357536425e-02
 2  1  3     2.8338122772e-02
 2  2  1    -2.4357536425e-02
 2  2  2     1.0680120267e-01
 2  2  3    -1.8166566200e-02
 2  3  1    -2.8338122772e-02
 2  3  2    -1.8166566200e-02
 2  3  3     4.2310214262e-02
 3  1  1    -2.1988742702e-01
 3  1  2    -1.9213298461e-02
 3  1  3     4.5800815790e-02
 3  2  1     1.9213298461e-02
 3  2  2     1.5122006550e-01
 3  2  3    -5.3498525120e-03
 3  3  1    -4.5800815790e-02
 3  3  2    -5.3498525120e-03
 3  3  3     2.2310490877e-01

   24
0.0000000000e+00 0.0000000000e+00 0.0000000000e+00
-1.5774735336e+00 2.7322643078e+00 0.0000000000e+00
     1      2      2
 1  1  1    -7.1698530041e-02
 1  1  2    -4.7432650617e-03
 1  1  3    -3.1253588494e-02
 1  2  1    -4.6931755696e-02
 1  2  2    -6.5370867102e-02
 1  2  3     3.5417033706e-02
 1  3  1    -1.7753571752e-02
 1  3  2    -1.3464973539e-02
 1  3  3    -3.6641720390e-02
 2  1  1    -6.1752759147e-02
 2  1  2     9.0149367432e-03
 2  1  3    -5.6707352391e-03
 2  2  1    -1.5342599681e-02
 2  2  2    -1.7384294191e-02
 2  2  3    -3.0427599599e-02
 2  3  1     2.7622795406e-02
 2  3  2    -4.3927616341e-02
 2  3  3    -2.1155107131e-02
 3  1  1     5.8443192373e-02
 3  1  2     1.7990755649e-01
 3  1  3     2.7533516077e-02
 3  2  1     1.4148095957e-01
 3  2  2    -1.2711055389e-01
 3  2  3    -3.6989743733e-02
 3  3  1    -1.8267299713e-02
 3  3  2     4.2339596245e-02
 3  3  3     2.2310490877e-01

   25
0.0000000000e+00 0.0000000000e+00 0.0000000000e+00
1.5774735336e+00 -2.7322643078e+00 0.0000000000e+00
     1      2      1
 1  1  1     5.3753725069e-02
 1  1  2     3.9340628240e-02
 1  1  3     2.9691840682e-02
 1  2  1    -7.7214864781e-02
 1  2  2     8.5211253628e-02
 1  2  3     6.6702311416e-02
 1  3  1    -1.9723199514e-02
 1  3  2     8.9136742186e-02
 1  3  3    -4.7051620427e-02
 2  1  1    -1.1155064253e-02
 2  1  2    -8.7515080532e-02
 2  1  3     6.3337411872e-02
 2  2  1     5.6057551973e-02
 2  2  2     5.7722737116e-02
 2  2  3    -7.4208352768e-02
 2  3  1     3.8843649150e-02
 2  3  2    -9.3612712903e-02
 2  3  3     2.8704528038e-02
 3  1  1     8.0755475290e-03
 3  1  2     7.9182484087e-02
 3  1  3    -1.0108385215e-01
 3  2  1     7.5817584543e-02
 3  2  2    -5.2592059615e-02
 3  2  3    -5.8360789251e-02
 3  3  1     1.3330402716e-03
 3  3  2    -5.5100162598e-02
 3  3  3     1.2210042341e-01

   26
0.0000000000e+00 0.0000000000e+00 0.0000000000e+00
0.0000000000e+00 0.0000000000e+00 -5.1445326223e+00
     1      2      4
 1  1  1     8.2253870653e-02
 1  1  2    -1.0152203288e-01
 1  1  3    -1.2621489179e-01
 1  2  1    -1.3049990326e-01
 1  2  2    -3.9807012805e-02
 1  2  3     5.4422358580e-02
 1  3  1    -9.9644022723e-02
 1  3  2     1.0041596357e-01
 1  3  3    -1.6949286453e-01
 2  1  1    -5.7792436552e-02
 2  1  2     8.6126013630e-02
 2  1  3     5.4422358580e-02
 2  2  1     3.5934869828e-02
 2  2  2     3.3285731747e-02
 2  2  3    -6.3373365039e-02
 2  3  1     1.0041596357e-01
 2  3  2     1.6306344472e-02
 2  3  3     9.7856750964e-02
 3  1  1    -9.5790120880e-02
 3  1  2    -1.9118300798e-03
 3  1  3     6.8972303104e-01
 3  2  1    -1.9118300798e-03
 3  2  2    -9.7997712102e-02
 3  2  3    -3.9821177764e-01
 3  3  1    -2.7544254299e-02
 3  3  2     1.5902682634e-02
 3  3  3     7.7835476643e-02

   27
0.0000000000e+00 0.0000000000e+00 0.0000000000e+00
0.0000000000e+00 0.0000000000e+00 0.0000000000e+00
     1      3      1
 1  1  1     0.0000000000e+00
 1  1  2    -6.2555757238e-01
 1  1  3     1.8728721322e+00
 1  2  1    -6.2555757238e-01
 1  2  2     0.0000000000e+00
 1  2  3     0.0000000000e+00
 1  3  1     2.8432880641e+00
 1  3  2     0.0000000000e+00
 1  3  3     0.0000000000e+00
 2  1  1    -6.2555757238e-01
 2  1  2     0.0000000000e+00
 2  1  3     0.0000000000e+00
 2  2  1     0.0000000000e+00
 2  2  2     6.2555757238e-01
 2  2  3     1.8728721322e+00
 2  3  1     0.0000000000e+00
 2  3  2     2.8432880641e+00
 2  3  3     0.0000000000e+00
 3  1  1     1.8728721322e+00
 3  1  2     0.0000000000e+00
 3  1  3     0.0000000000e+00
 3  2  1     0.0000000000e+00
 3  2  2     1.8728721322e+00
 3  2  3     0.0000000000e+00
 3  3  1     0.0000000000e+00
 3  3  2     0.0000000000e+00
 3  3  3    -4.6578714903e+01

   28
0.0000000000e+00 0.0000000000e+00 0.0000000000e+00
0.0000000000e+00 0.0000000000e+00 0.0000000000e+00
     1      3      2
 1  1  1    -6.3018954833e-01
 1  1  2     2.0585551465e-01
 1  1  3     2.1050103695e-01
 1  2  1     1.6692030426e-01
 1  2  2    -1.1332009046e-01
 1  2  3     1.9381017721e-02
 1  3  1     2.3634734278e-01
 1  3  2    -6.8956268975e-02
 1  3  3    -4.1406931797e-02
 2  1  1     1.0260593386e-01
 2  1  2    -2.2471584763e-01
 2  1  3     1.9381017721e-02
 2  2  1    -2.9215361024e-01
 2  2  2     3.2665955623e-01
 2  2  3     2.3288030855e-01
 2  3  1    -6.8956268975e-02
 2  3  2     1.5672350187e-01
 2  3  3     2.3906303219e-02
 3  1  1     4.7396178537e-01
 3  1  2    -4.0914684996e-01
 3  1  3     8.2926793890e-02
 3  2  1    -4.0914684996e-01
 3  2  2     1.5196974506e-03
 3  2  3    -4.7877806775e-02
 3  3  1    -9.5510480602e-01
 3  3  2     5.5143001686e-01
 3  3  3     2.5658323293e-01

   29
0.0000000000e+00 0.0000000000e+00 0.0000000000e+00
0.0000000000e+00 0.0000000000e+00 0.0000000000e+00
     1      3      3
 1  1  1     0.0000000000e+00
 1  1  2     3.1325729644e-01
 1  1  3    -3.2381800245e+00
 1  2  1     3.1325729644e-01
 1  2  2     0.0000000000e+00
 1  2  3     0.0000000000e+00
 1  3  1    -3.2381800245e+00
 1  3  2     0.0000000000e+00
 1  3  3     0.0000000000e+00
 2  1  1     3.1325729644e-01
 2  1  2     0.0000000000e+00
 2  1  3     0.0000000000e+00
 2  2  1     0.0000000000e+00
 2  2  2    -3.1325729644e-01
 2  2  3    -3.2381800245e+00
 2  3  1     0.0000000000e+00
 2  3  2    -3.2381800245e+00
 2  3  3     0.0000000000e+00
 3  1  1    -2.6512826181e+00
 3  1  2     0.0000000000e+00
 3  1  3     0.0000000000e+00
 3  2  1     0.0000000000e+00
 3  2  2    -2.6512826181e+00
 3  2  3     0.0000000000e+00
 3  3  1     0.0000000000e+00
 3  3  2     0.0000000000e+00
 3  3  3     4.5962317001e+01

   30
0.0000000000e+00 0.0000000000e+00 0.0000000000e+00
-3.1549470672e+00 0.0000000000e+00 0.0000000000e+00
     1      3      2
 1  1  1     6.3018954833e-01
 1  1  2     2.0585551465e-01
 1  1  3     2.1050103695e-01
 1  2  1     1.6692030426e-01
 1  2  2     1.1332009046e-01
 1  2  3    -1.9381017721e-02
 1  3  1     2.3634734278e-01
 1  3  2     6.8956268975e-02
 1  3  3     4.1406931797e-02
 2  1  1     1.0260593386e-01
 2  1  2     2.2471584763e-01
 2  1  3    -1.9381017721e-02
 2  2  1     2.9215361024e-01
 2  2  2     3.2665955623e-01
 2  2  3     2.3288030855e-01
 2  3  1     6.8956268975e-02
 2  3  2     1.5672350187e-01
 2  3  3     2.3906303219e-02
 3  1  1     4.7396178537e-01
 3  1  2     4.0914684996e-01
 3  1  3    -8.2926793890e-02
 3  2  1     4.0914684996e-01
 3  2  2     1.5196974506e-03
 3  2  3    -4.7877806775e-02
 3  3  1     9.5510480602e-01
 3  3  2     5.5143001686e-01
 3  3  3     2.5658323293e-01

   31
0.0000000000e+00 0.0000000000e+00 0.0000000000e+00
-1.5774735336e+00 2.7322643078e+00 0.0000000000e+00
     1      3      2
 1  1  1     0.0000000000e+00
 1  1  2    -3.0016938190e-01
 1  1  3     2.4406994434e-01
 1  2  1    -2.2229896111e-01
 1  2  2     0.0000000000e+00
 1  2  3     0.0000000000e+00
 1  3  1     1.1691158141e-01
 1  3  2     0.0000000000e+00
 1  3  3     0.0000000000e+00
 2  1  1    -9.3670220324e-02
 2  1  2     0.0000000000e+00
 2  1  3     0.0000000000e+00
 2  2  1     0.0000000000e+00
 2  2  2    -7.6486075987e-01
 2  2  3     1.9931140115e-01
 2  3  1     0.0000000000e+00
 2  3  2     2.7615926323e-01
 2  3  3    -4.7812606438e-02
 3  1  1    -2.3470134651e-01
 3  1  2     0.0000000000e+00
 3  1  3     0.0000000000e+00
 3  2  1     0.0000000000e+00
 3  2  2     7.1018282933e-01
 3  2  3     9.5755613551e-02
 3  3  1     0.0000000000e+00
 3  3  2    -1.1028600337e+00
 3  3  3     2.5658323293e-01

   32
0.0000000000e+00 0.0000000000e+00 0.0000000000e+00
0.0000000000e+00 0.0000000000e+00 -5.1445326223e+00
     1      3      4
 1  1  1    -1.4052224670e-01
 1  1  2     1.8624527292e-01
 1  1  3     2.3654810878e-01
 1  2  1     7.2751997192e-02
 1  2  2     7.6257757849e-02
 1  2  3    -5.4304361764e-03
 1  3  1    -5.8875417057e-02
 1  3  2    -1.0441437680e-02
 1  3  3    -9.9005160380e-02
 2  1  1     2.2892201044e-02
 2  1  2    -1.0101942334e-02
 2  1  3    -5.4304361764e-03
 2  2  1    -2.0667806221e-01
 2  2  2     1.4210918892e-02
 2  2  3     2.3027758120e-01
 2  3  1    -1.0441437680e-02
 2  3  2    -7.0932150768e-02
 2  3  3     5.7160655997e-02
 3  1  1    -2.1900684784e-02
 3  1  2     7.5574342890e-02
 3  1  3     4.1828331943e-01
 3  2  1     7.5574342890e-02
 3  2  2     6.5365049638e-02